s 2.500000000 _4_ AGT  --- 6 tcp 40 [0 0 0 0] ------- [4194305:0 1:0 32 0] [0 0] 0 0
s 2.500000000 _5_ AGT  --- 7 tcp 40 [0 0 0 0] ------- [8388609:0 1:1 32 0] [0 0] 0 0
+ 2.504614 2 0 tcp 60 ------- 0 1.0.1.0 0.0.1.0 0 6
- 2.504614 2 0 tcp 60 ------- 0 1.0.1.0 0.0.1.0 0 6
r 2.504812980 _1_ AGT  --- 7 tcp 60 [13a 1 5 800] ------- [8388609:0 1:1 32 1] [0 0] 1 0
s 2.504812980 _1_ AGT  --- 8 ack 40 [0 0 0 0] ------- [1:1 8388609:0 32 0] [0 0] 0 0
+ 2.504813 1 0 ack 40 ------- 0 0.0.1.1 2.0.1.0 0 8
- 2.504813 1 0 ack 40 ------- 0 0.0.1.1 2.0.1.0 0 8
r 2.60462 2 0 tcp 60 ------- 0 1.0.1.0 0.0.1.0 0 6
+ 2.60462 0 1 tcp 60 ------- 0 1.0.1.0 0.0.1.0 0 6
- 2.60462 0 1 tcp 60 ------- 0 1.0.1.0 0.0.1.0 0 6
r 2.604813 1 0 ack 40 ------- 0 0.0.1.1 2.0.1.0 0 8
+ 2.604813 0 3 ack 40 ------- 0 0.0.1.1 2.0.1.0 0 8
- 2.604813 0 3 ack 40 ------- 0 0.0.1.1 2.0.1.0 0 8
r 2.704621 0 1 tcp 60 ------- 0 1.0.1.0 0.0.1.0 0 6
r 2.704620900 _1_ AGT  --- 6 tcp 60 [13a 2 4 800] ------- [4194305:0 1:0 30 4194304] [0 0] 1 0
s 2.704620900 _1_ AGT  --- 9 ack 40 [0 0 0 0] ------- [1:0 4194305:0 32 0] [0 0] 0 0
+ 2.704621 1 0 ack 40 ------- 0 0.0.1.0 1.0.1.0 0 9
- 2.704621 1 0 ack 40 ------- 0 0.0.1.0 1.0.1.0 0 9
r 2.704817 0 3 ack 40 ------- 0 0.0.1.1 2.0.1.0 0 8
r 2.706958228 _5_ AGT  --- 8 ack 40 [13a 5 3 800] ------- [1:1 8388609:0 29 8388609] [0 0] 1 0
s 2.706958228 _5_ AGT  --- 10 tcp 5040 [0 0 0 0] ------- [8388609:0 1:1 32 0] [1 0] 0 0
s 2.706958228 _5_ AGT  --- 11 tcp 5040 [0 0 0 0] ------- [8388609:0 1:1 32 0] [2 0] 0 0
r 2.749003077 _1_ AGT  --- 10 tcp 5060 [13a 1 5 800] ------- [8388609:0 1:1 32 1] [1 0] 1 0
s 2.749003077 _1_ AGT  --- 12 ack 40 [0 0 0 0] ------- [1:1 8388609:0 32 0] [1 0] 0 0
+ 2.749003 1 0 ack 40 ------- 0 0.0.1.1 2.0.1.0 1 12
- 2.749003 1 0 ack 40 ------- 0 0.0.1.1 2.0.1.0 1 12
r 2.791328208 _1_ AGT  --- 11 tcp 5060 [13a 1 5 800] ------- [8388609:0 1:1 32 1] [2 0] 1 0
s 2.791328208 _1_ AGT  --- 13 ack 40 [0 0 0 0] ------- [1:1 8388609:0 32 0] [2 0] 0 0
+ 2.791328 1 0 ack 40 ------- 0 0.0.1.1 2.0.1.0 2 13
- 2.791328 1 0 ack 40 ------- 0 0.0.1.1 2.0.1.0 2 13
r 2.804621 1 0 ack 40 ------- 0 0.0.1.0 1.0.1.0 0 9
+ 2.804621 0 2 ack 40 ------- 0 0.0.1.0 1.0.1.0 0 9
- 2.804621 0 2 ack 40 ------- 0 0.0.1.0 1.0.1.0 0 9
r 2.849003 1 0 ack 40 ------- 0 0.0.1.1 2.0.1.0 1 12
+ 2.849003 0 3 ack 40 ------- 0 0.0.1.1 2.0.1.0 1 12
- 2.849003 0 3 ack 40 ------- 0 0.0.1.1 2.0.1.0 1 12
r 2.891329 1 0 ack 40 ------- 0 0.0.1.1 2.0.1.0 2 13
+ 2.891329 0 3 ack 40 ------- 0 0.0.1.1 2.0.1.0 2 13
- 2.891329 0 3 ack 40 ------- 0 0.0.1.1 2.0.1.0 2 13
r 2.904625 0 2 ack 40 ------- 0 0.0.1.0 1.0.1.0 0 9
r 2.906466714 _4_ AGT  --- 9 ack 40 [13a 4 2 800] ------- [1:0 4194305:0 29 4194305] [0 0] 1 0
s 2.906466714 _4_ AGT  --- 14 tcp 1040 [0 0 0 0] ------- [4194305:0 1:0 32 0] [1 0] 0 0
s 2.906466714 _4_ AGT  --- 15 tcp 1040 [0 0 0 0] ------- [4194305:0 1:0 32 0] [2 0] 0 0
+ 2.916632 2 0 tcp 1060 ------- 0 1.0.1.0 0.0.1.0 1 14
- 2.916632 2 0 tcp 1060 ------- 0 1.0.1.0 0.0.1.0 1 14
+ 2.927098 2 0 tcp 1060 ------- 0 1.0.1.0 0.0.1.0 2 15
- 2.927098 2 0 tcp 1060 ------- 0 1.0.1.0 0.0.1.0 2 15
r 2.949007 0 3 ack 40 ------- 0 0.0.1.1 2.0.1.0 1 12
r 2.950788325 _5_ AGT  --- 12 ack 40 [13a 5 3 800] ------- [1:1 8388609:0 29 8388609] [1 0] 1 0
s 2.950788325 _5_ AGT  --- 16 tcp 5040 [0 0 0 0] ------- [8388609:0 1:1 32 0] [3 0] 0 0
s 2.950788325 _5_ AGT  --- 17 tcp 5040 [0 0 0 0] ------- [8388609:0 1:1 32 0] [4 0] 0 0
r 2.991333 0 3 ack 40 ------- 0 0.0.1.1 2.0.1.0 2 13
r 2.993093174 _1_ AGT  --- 16 tcp 5060 [13a 1 5 800] ------- [8388609:0 1:1 32 1] [3 0] 1 0
s 2.993093174 _1_ AGT  --- 18 ack 40 [0 0 0 0] ------- [1:1 8388609:0 32 0] [3 0] 0 0
+ 2.993093 1 0 ack 40 ------- 0 0.0.1.1 2.0.1.0 3 18
- 2.993093 1 0 ack 40 ------- 0 0.0.1.1 2.0.1.0 3 18
r 3.016738 2 0 tcp 1060 ------- 0 1.0.1.0 0.0.1.0 1 14
+ 3.016738 0 1 tcp 1060 ------- 0 1.0.1.0 0.0.1.0 1 14
- 3.016738 0 1 tcp 1060 ------- 0 1.0.1.0 0.0.1.0 1 14
r 3.027204 2 0 tcp 1060 ------- 0 1.0.1.0 0.0.1.0 2 15
+ 3.027204 0 1 tcp 1060 ------- 0 1.0.1.0 0.0.1.0 2 15
- 3.027204 0 1 tcp 1060 ------- 0 1.0.1.0 0.0.1.0 2 15
r 3.035158305 _1_ AGT  --- 17 tcp 5060 [13a 1 5 800] ------- [8388609:0 1:1 32 1] [4 0] 1 0
s 3.035158305 _1_ AGT  --- 19 ack 40 [0 0 0 0] ------- [1:1 8388609:0 32 0] [4 0] 0 0
+ 3.035158 1 0 ack 40 ------- 0 0.0.1.1 2.0.1.0 4 19
- 3.035158 1 0 ack 40 ------- 0 0.0.1.1 2.0.1.0 4 19
r 3.037123154 _5_ AGT  --- 13 ack 40 [13a 5 3 800] ------- [1:1 8388609:0 29 8388609] [2 0] 1 0
s 3.037123154 _5_ AGT  --- 20 tcp 5040 [0 0 0 0] ------- [8388609:0 1:1 32 0] [5 0] 0 0
s 3.037123154 _5_ AGT  --- 21 tcp 5040 [0 0 0 0] ------- [8388609:0 1:1 32 0] [6 0] 0 0
r 3.079268002 _1_ AGT  --- 20 tcp 5060 [13a 1 5 800] ------- [8388609:0 1:1 32 1] [5 0] 1 0
s 3.079268002 _1_ AGT  --- 22 ack 40 [0 0 0 0] ------- [1:1 8388609:0 32 0] [5 0] 0 0
+ 3.079268 1 0 ack 40 ------- 0 0.0.1.1 2.0.1.0 5 22
- 3.079268 1 0 ack 40 ------- 0 0.0.1.1 2.0.1.0 5 22
r 3.093094 1 0 ack 40 ------- 0 0.0.1.1 2.0.1.0 3 18
+ 3.093094 0 3 ack 40 ------- 0 0.0.1.1 2.0.1.0 3 18
- 3.093094 0 3 ack 40 ------- 0 0.0.1.1 2.0.1.0 3 18
r 3.116749 0 1 tcp 1060 ------- 0 1.0.1.0 0.0.1.0 1 14
r 3.116748728 _1_ AGT  --- 14 tcp 1060 [13a 2 4 800] ------- [4194305:0 1:0 30 4194304] [1 0] 1 0
s 3.116748728 _1_ AGT  --- 23 ack 40 [0 0 0 0] ------- [1:0 4194305:0 32 0] [1 0] 0 0
+ 3.116749 1 0 ack 40 ------- 0 0.0.1.0 1.0.1.0 1 23
- 3.116749 1 0 ack 40 ------- 0 0.0.1.0 1.0.1.0 1 23
r 3.121493134 _1_ AGT  --- 21 tcp 5060 [13a 1 5 800] ------- [8388609:0 1:1 32 1] [6 0] 1 0
s 3.121493134 _1_ AGT  --- 24 ack 40 [0 0 0 0] ------- [1:1 8388609:0 32 0] [6 0] 0 0
+ 3.121493 1 0 ack 40 ------- 0 0.0.1.1 2.0.1.0 6 24
- 3.121493 1 0 ack 40 ------- 0 0.0.1.1 2.0.1.0 6 24
r 3.127215 0 1 tcp 1060 ------- 0 1.0.1.0 0.0.1.0 2 15
r 3.127214614 _1_ AGT  --- 15 tcp 1060 [13a 2 4 800] ------- [4194305:0 1:0 30 4194304] [2 0] 1 0
s 3.127214614 _1_ AGT  --- 25 ack 40 [0 0 0 0] ------- [1:0 4194305:0 32 0] [2 0] 0 0
+ 3.127215 1 0 ack 40 ------- 0 0.0.1.0 1.0.1.0 2 25
- 3.127215 1 0 ack 40 ------- 0 0.0.1.0 1.0.1.0 2 25
r 3.135159 1 0 ack 40 ------- 0 0.0.1.1 2.0.1.0 4 19
+ 3.135159 0 3 ack 40 ------- 0 0.0.1.1 2.0.1.0 4 19
- 3.135159 0 3 ack 40 ------- 0 0.0.1.1 2.0.1.0 4 19
r 3.179268 1 0 ack 40 ------- 0 0.0.1.1 2.0.1.0 5 22
+ 3.179268 0 3 ack 40 ------- 0 0.0.1.1 2.0.1.0 5 22
- 3.179268 0 3 ack 40 ------- 0 0.0.1.1 2.0.1.0 5 22
r 3.193098 0 3 ack 40 ------- 0 0.0.1.1 2.0.1.0 3 18
r 3.194938423 _5_ AGT  --- 18 ack 40 [13a 5 3 800] ------- [1:1 8388609:0 29 8388609] [3 0] 1 0
s 3.194938423 _5_ AGT  --- 26 tcp 5040 [0 0 0 0] ------- [8388609:0 1:1 32 0] [7 0] 0 0
s 3.194938423 _5_ AGT  --- 27 tcp 5040 [0 0 0 0] ------- [8388609:0 1:1 32 0] [8 0] 0 0
r 3.216749 1 0 ack 40 ------- 0 0.0.1.0 1.0.1.0 1 23
+ 3.216749 0 2 ack 40 ------- 0 0.0.1.0 1.0.1.0 1 23
- 3.216749 0 2 ack 40 ------- 0 0.0.1.0 1.0.1.0 1 23
r 3.221494 1 0 ack 40 ------- 0 0.0.1.1 2.0.1.0 6 24
+ 3.221494 0 3 ack 40 ------- 0 0.0.1.1 2.0.1.0 6 24
- 3.221494 0 3 ack 40 ------- 0 0.0.1.1 2.0.1.0 6 24
r 3.227215 1 0 ack 40 ------- 0 0.0.1.0 1.0.1.0 2 25
+ 3.227215 0 2 ack 40 ------- 0 0.0.1.0 1.0.1.0 2 25
- 3.227215 0 2 ack 40 ------- 0 0.0.1.0 1.0.1.0 2 25
r 3.235163 0 3 ack 40 ------- 0 0.0.1.1 2.0.1.0 4 19
r 3.236943271 _1_ AGT  --- 26 tcp 5060 [13a 1 5 800] ------- [8388609:0 1:1 32 1] [7 0] 1 0
s 3.236943271 _1_ AGT  --- 28 ack 40 [0 0 0 0] ------- [1:1 8388609:0 32 0] [7 0] 0 0
+ 3.236943 1 0 ack 40 ------- 0 0.0.1.1 2.0.1.0 7 28
- 3.236943 1 0 ack 40 ------- 0 0.0.1.1 2.0.1.0 7 28
r 3.279168402 _1_ AGT  --- 27 tcp 5060 [13a 1 5 800] ------- [8388609:0 1:1 32 1] [8 0] 1 0
s 3.279168402 _1_ AGT  --- 29 ack 40 [0 0 0 0] ------- [1:1 8388609:0 32 0] [8 0] 0 0
+ 3.279168 1 0 ack 40 ------- 0 0.0.1.1 2.0.1.0 8 29
- 3.279168 1 0 ack 40 ------- 0 0.0.1.1 2.0.1.0 8 29
r 3.279272 0 3 ack 40 ------- 0 0.0.1.1 2.0.1.0 5 22
r 3.281213251 _5_ AGT  --- 19 ack 40 [13a 5 3 800] ------- [1:1 8388609:0 29 8388609] [4 0] 1 0
s 3.281213251 _5_ AGT  --- 30 tcp 5040 [0 0 0 0] ------- [8388609:0 1:1 32 0] [9 0] 0 0
s 3.281213251 _5_ AGT  --- 31 tcp 5040 [0 0 0 0] ------- [8388609:0 1:1 32 0] [10 0] 0 0
r 3.283078382 _5_ AGT  --- 22 ack 40 [13a 5 3 800] ------- [1:1 8388609:0 29 8388609] [5 0] 1 0
s 3.283078382 _5_ AGT  --- 32 tcp 5040 [0 0 0 0] ------- [8388609:0 1:1 32 0] [11 0] 0 0
s 3.283078382 _5_ AGT  --- 33 tcp 5040 [0 0 0 0] ------- [8388609:0 1:1 32 0] [12 0] 0 0
r 3.316753 0 2 ack 40 ------- 0 0.0.1.0 1.0.1.0 1 23
r 3.318434542 _4_ AGT  --- 23 ack 40 [13a 4 2 800] ------- [1:0 4194305:0 29 4194305] [1 0] 1 0
s 3.318434542 _4_ AGT  --- 34 tcp 1040 [0 0 0 0] ------- [4194305:0 1:0 32 0] [3 0] 0 0
s 3.318434542 _4_ AGT  --- 35 tcp 1040 [0 0 0 0] ------- [4194305:0 1:0 32 0] [4 0] 0 0
r 3.321498 0 3 ack 40 ------- 0 0.0.1.1 2.0.1.0 6 24
r 3.325323231 _1_ AGT  --- 30 tcp 5060 [13a 1 5 800] ------- [8388609:0 1:1 32 1] [9 0] 1 0
s 3.325323231 _1_ AGT  --- 36 ack 40 [0 0 0 0] ------- [1:1 8388609:0 32 0] [9 0] 0 0
+ 3.325323 1 0 ack 40 ------- 0 0.0.1.1 2.0.1.0 9 36
- 3.325323 1 0 ack 40 ------- 0 0.0.1.1 2.0.1.0 9 36
r 3.327219 0 2 ack 40 ------- 0 0.0.1.0 1.0.1.0 2 25
+ 3.32862 2 0 tcp 1060 ------- 0 1.0.1.0 0.0.1.0 3 34
- 3.32862 2 0 tcp 1060 ------- 0 1.0.1.0 0.0.1.0 3 34
r 3.336944 1 0 ack 40 ------- 0 0.0.1.1 2.0.1.0 7 28
+ 3.336944 0 3 ack 40 ------- 0 0.0.1.1 2.0.1.0 7 28
- 3.336944 0 3 ack 40 ------- 0 0.0.1.1 2.0.1.0 7 28
+ 3.338806 2 0 tcp 1060 ------- 0 1.0.1.0 0.0.1.0 4 35
- 3.338806 2 0 tcp 1060 ------- 0 1.0.1.0 0.0.1.0 4 35
r 3.340691257 _4_ AGT  --- 25 ack 40 [13a 4 2 800] ------- [1:0 4194305:0 29 4194305] [2 0] 1 0
s 3.340691257 _4_ AGT  --- 37 tcp 1040 [0 0 0 0] ------- [4194305:0 1:0 32 0] [5 0] 0 0
s 3.340691257 _4_ AGT  --- 38 tcp 1040 [0 0 0 0] ------- [4194305:0 1:0 32 0] [6 0] 0 0
+ 3.351017 2 0 tcp 1060 ------- 0 1.0.1.0 0.0.1.0 5 37
- 3.351017 2 0 tcp 1060 ------- 0 1.0.1.0 0.0.1.0 5 37
+ 3.361123 2 0 tcp 1060 ------- 0 1.0.1.0 0.0.1.0 6 38
- 3.361123 2 0 tcp 1060 ------- 0 1.0.1.0 0.0.1.0 6 38
r 3.367388362 _1_ AGT  --- 31 tcp 5060 [13a 1 5 800] ------- [8388609:0 1:1 32 1] [10 0] 1 0
s 3.367388362 _1_ AGT  --- 39 ack 40 [0 0 0 0] ------- [1:1 8388609:0 32 0] [10 0] 0 0
+ 3.367388 1 0 ack 40 ------- 0 0.0.1.1 2.0.1.0 10 39
- 3.367388 1 0 ack 40 ------- 0 0.0.1.1 2.0.1.0 10 39
r 3.369353211 _5_ AGT  --- 24 ack 40 [13a 5 3 800] ------- [1:1 8388609:0 29 8388609] [6 0] 1 0
s 3.369353211 _5_ AGT  --- 40 tcp 5040 [0 0 0 0] ------- [8388609:0 1:1 32 0] [13 0] 0 0
s 3.369353211 _5_ AGT  --- 41 tcp 5040 [0 0 0 0] ------- [8388609:0 1:1 32 0] [14 0] 0 0
r 3.379169 1 0 ack 40 ------- 0 0.0.1.1 2.0.1.0 8 29
+ 3.379169 0 3 ack 40 ------- 0 0.0.1.1 2.0.1.0 8 29
- 3.379169 0 3 ack 40 ------- 0 0.0.1.1 2.0.1.0 8 29
r 3.411778059 _1_ AGT  --- 32 tcp 5060 [13a 1 5 800] ------- [8388609:0 1:1 32 1] [11 0] 1 0
s 3.411778059 _1_ AGT  --- 42 ack 40 [0 0 0 0] ------- [1:1 8388609:0 32 0] [11 0] 0 0
+ 3.411778 1 0 ack 40 ------- 0 0.0.1.1 2.0.1.0 11 42
- 3.411778 1 0 ack 40 ------- 0 0.0.1.1 2.0.1.0 11 42
r 3.425324 1 0 ack 40 ------- 0 0.0.1.1 2.0.1.0 9 36
+ 3.425324 0 3 ack 40 ------- 0 0.0.1.1 2.0.1.0 9 36
- 3.425324 0 3 ack 40 ------- 0 0.0.1.1 2.0.1.0 9 36
r 3.428726 2 0 tcp 1060 ------- 0 1.0.1.0 0.0.1.0 3 34
+ 3.428726 0 1 tcp 1060 ------- 0 1.0.1.0 0.0.1.0 3 34
- 3.428726 0 1 tcp 1060 ------- 0 1.0.1.0 0.0.1.0 3 34
r 3.436948 0 3 ack 40 ------- 0 0.0.1.1 2.0.1.0 7 28
r 3.438912 2 0 tcp 1060 ------- 0 1.0.1.0 0.0.1.0 4 35
+ 3.438912 0 1 tcp 1060 ------- 0 1.0.1.0 0.0.1.0 4 35
- 3.438912 0 1 tcp 1060 ------- 0 1.0.1.0 0.0.1.0 4 35
r 3.451123 2 0 tcp 1060 ------- 0 1.0.1.0 0.0.1.0 5 37
+ 3.451123 0 1 tcp 1060 ------- 0 1.0.1.0 0.0.1.0 5 37
- 3.451123 0 1 tcp 1060 ------- 0 1.0.1.0 0.0.1.0 5 37
r 3.454363191 _1_ AGT  --- 33 tcp 5060 [13a 1 5 800] ------- [8388609:0 1:1 32 1] [12 0] 1 0
s 3.454363191 _1_ AGT  --- 43 ack 40 [0 0 0 0] ------- [1:1 8388609:0 32 0] [12 0] 0 0
+ 3.454363 1 0 ack 40 ------- 0 0.0.1.1 2.0.1.0 12 43
- 3.454363 1 0 ack 40 ------- 0 0.0.1.1 2.0.1.0 12 43
r 3.456628039 _5_ AGT  --- 28 ack 40 [13a 5 3 800] ------- [1:1 8388609:0 29 8388609] [7 0] 1 0
s 3.456628039 _5_ AGT  --- 44 tcp 5040 [0 0 0 0] ------- [8388609:0 1:1 32 0] [15 0] 0 0
s 3.456628039 _5_ AGT  --- 45 tcp 5040 [0 0 0 0] ------- [8388609:0 1:1 32 0] [16 0] 0 0
r 3.461229 2 0 tcp 1060 ------- 0 1.0.1.0 0.0.1.0 6 38
+ 3.461229 0 1 tcp 1060 ------- 0 1.0.1.0 0.0.1.0 6 38
- 3.461229 0 1 tcp 1060 ------- 0 1.0.1.0 0.0.1.0 6 38
r 3.467389 1 0 ack 40 ------- 0 0.0.1.1 2.0.1.0 10 39
+ 3.467389 0 3 ack 40 ------- 0 0.0.1.1 2.0.1.0 10 39
- 3.467389 0 3 ack 40 ------- 0 0.0.1.1 2.0.1.0 10 39
r 3.479173 0 3 ack 40 ------- 0 0.0.1.1 2.0.1.0 8 29
r 3.498712888 _1_ AGT  --- 40 tcp 5060 [13a 1 5 800] ------- [8388609:0 1:1 32 1] [13 0] 1 0
s 3.498712888 _1_ AGT  --- 46 ack 40 [0 0 0 0] ------- [1:1 8388609:0 32 0] [13 0] 0 0
+ 3.498713 1 0 ack 40 ------- 0 0.0.1.1 2.0.1.0 13 46
- 3.498713 1 0 ack 40 ------- 0 0.0.1.1 2.0.1.0 13 46
r 3.500737736 _5_ AGT  --- 29 ack 40 [13a 5 3 800] ------- [1:1 8388609:0 29 8388609] [8 0] 1 0
s 3.500737736 _5_ AGT  --- 47 tcp 5040 [0 0 0 0] ------- [8388609:0 1:1 32 0] [17 0] 0 0
s 3.500737736 _5_ AGT  --- 48 tcp 5040 [0 0 0 0] ------- [8388609:0 1:1 32 0] [18 0] 0 0
r 3.511778 1 0 ack 40 ------- 0 0.0.1.1 2.0.1.0 11 42
+ 3.511778 0 3 ack 40 ------- 0 0.0.1.1 2.0.1.0 11 42
- 3.511778 0 3 ack 40 ------- 0 0.0.1.1 2.0.1.0 11 42
r 3.525328 0 3 ack 40 ------- 0 0.0.1.1 2.0.1.0 9 36
r 3.528737 0 1 tcp 1060 ------- 0 1.0.1.0 0.0.1.0 3 34
r 3.528736557 _1_ AGT  --- 34 tcp 1060 [13a 2 4 800] ------- [4194305:0 1:0 30 4194304] [3 0] 1 0
s 3.528736557 _1_ AGT  --- 49 ack 40 [0 0 0 0] ------- [1:0 4194305:0 32 0] [3 0] 0 0
+ 3.528737 1 0 ack 40 ------- 0 0.0.1.0 1.0.1.0 3 49
- 3.528737 1 0 ack 40 ------- 0 0.0.1.0 1.0.1.0 3 49
r 3.538922 0 1 tcp 1060 ------- 0 1.0.1.0 0.0.1.0 4 35
r 3.538922442 _1_ AGT  --- 35 tcp 1060 [13a 2 4 800] ------- [4194305:0 1:0 30 4194304] [4 0] 1 0
s 3.538922442 _1_ AGT  --- 50 ack 40 [0 0 0 0] ------- [1:0 4194305:0 32 0] [4 0] 0 0
+ 3.538922 1 0 ack 40 ------- 0 0.0.1.0 1.0.1.0 4 50
- 3.538922 1 0 ack 40 ------- 0 0.0.1.0 1.0.1.0 4 50
r 3.542822585 _1_ AGT  --- 41 tcp 5060 [13a 1 5 800] ------- [8388609:0 1:1 32 1] [14 0] 1 0
s 3.542822585 _1_ AGT  --- 51 ack 40 [0 0 0 0] ------- [1:1 8388609:0 32 0] [14 0] 0 0
+ 3.542823 1 0 ack 40 ------- 0 0.0.1.1 2.0.1.0 14 51
- 3.542823 1 0 ack 40 ------- 0 0.0.1.1 2.0.1.0 14 51
r 3.544847433 _5_ AGT  --- 36 ack 40 [13a 5 3 800] ------- [1:1 8388609:0 29 8388609] [9 0] 1 0
s 3.544847433 _5_ AGT  --- 52 tcp 5040 [0 0 0 0] ------- [8388609:0 1:1 32 0] [19 0] 0 0
s 3.544847433 _5_ AGT  --- 53 tcp 5040 [0 0 0 0] ------- [8388609:0 1:1 32 0] [20 0] 0 0
r 3.551133 0 1 tcp 1060 ------- 0 1.0.1.0 0.0.1.0 5 37
r 3.551133271 _1_ AGT  --- 37 tcp 1060 [13a 2 4 800] ------- [4194305:0 1:0 30 4194304] [5 0] 1 0
s 3.551133271 _1_ AGT  --- 54 ack 40 [0 0 0 0] ------- [1:0 4194305:0 32 0] [5 0] 0 0
+ 3.551133 1 0 ack 40 ------- 0 0.0.1.0 1.0.1.0 5 54
- 3.551133 1 0 ack 40 ------- 0 0.0.1.0 1.0.1.0 5 54
r 3.554364 1 0 ack 40 ------- 0 0.0.1.1 2.0.1.0 12 43
+ 3.554364 0 3 ack 40 ------- 0 0.0.1.1 2.0.1.0 12 43
- 3.554364 0 3 ack 40 ------- 0 0.0.1.1 2.0.1.0 12 43
r 3.561239 0 1 tcp 1060 ------- 0 1.0.1.0 0.0.1.0 6 38
r 3.561239156 _1_ AGT  --- 38 tcp 1060 [13a 2 4 800] ------- [4194305:0 1:0 30 4194304] [6 0] 1 0
s 3.561239156 _1_ AGT  --- 55 ack 40 [0 0 0 0] ------- [1:0 4194305:0 32 0] [6 0] 0 0
+ 3.561239 1 0 ack 40 ------- 0 0.0.1.0 1.0.1.0 6 55
- 3.561239 1 0 ack 40 ------- 0 0.0.1.0 1.0.1.0 6 55
r 3.567393 0 3 ack 40 ------- 0 0.0.1.1 2.0.1.0 10 39
r 3.586972282 _1_ AGT  --- 44 tcp 5060 [13a 1 5 800] ------- [8388609:0 1:1 32 1] [15 0] 1 0
s 3.586972282 _1_ AGT  --- 56 ack 40 [0 0 0 0] ------- [1:1 8388609:0 32 0] [15 0] 0 0
+ 3.586972 1 0 ack 40 ------- 0 0.0.1.1 2.0.1.0 15 56
- 3.586972 1 0 ack 40 ------- 0 0.0.1.1 2.0.1.0 15 56
r 3.598713 1 0 ack 40 ------- 0 0.0.1.1 2.0.1.0 13 46
+ 3.598713 0 3 ack 40 ------- 0 0.0.1.1 2.0.1.0 13 46
- 3.598713 0 3 ack 40 ------- 0 0.0.1.1 2.0.1.0 13 46
r 3.611782 0 3 ack 40 ------- 0 0.0.1.1 2.0.1.0 11 42
r 3.628737 1 0 ack 40 ------- 0 0.0.1.0 1.0.1.0 3 49
+ 3.628737 0 2 ack 40 ------- 0 0.0.1.0 1.0.1.0 3 49
- 3.628737 0 2 ack 40 ------- 0 0.0.1.0 1.0.1.0 3 49
r 3.629177413 _1_ AGT  --- 45 tcp 5060 [13a 1 5 800] ------- [8388609:0 1:1 32 1] [16 0] 1 0
s 3.629177413 _1_ AGT  --- 57 ack 40 [0 0 0 0] ------- [1:1 8388609:0 32 0] [16 0] 0 0
+ 3.629177 1 0 ack 40 ------- 0 0.0.1.1 2.0.1.0 16 57
- 3.629177 1 0 ack 40 ------- 0 0.0.1.1 2.0.1.0 16 57
r 3.638923 1 0 ack 40 ------- 0 0.0.1.0 1.0.1.0 4 50
+ 3.638923 0 2 ack 40 ------- 0 0.0.1.0 1.0.1.0 4 50
- 3.638923 0 2 ack 40 ------- 0 0.0.1.0 1.0.1.0 4 50
r 3.642823 1 0 ack 40 ------- 0 0.0.1.1 2.0.1.0 14 51
+ 3.642823 0 3 ack 40 ------- 0 0.0.1.1 2.0.1.0 14 51
- 3.642823 0 3 ack 40 ------- 0 0.0.1.1 2.0.1.0 14 51
r 3.651134 1 0 ack 40 ------- 0 0.0.1.0 1.0.1.0 5 54
+ 3.651134 0 2 ack 40 ------- 0 0.0.1.0 1.0.1.0 5 54
- 3.651134 0 2 ack 40 ------- 0 0.0.1.0 1.0.1.0 5 54
r 3.654368 0 3 ack 40 ------- 0 0.0.1.1 2.0.1.0 12 43
r 3.66124 1 0 ack 40 ------- 0 0.0.1.0 1.0.1.0 6 55
+ 3.66124 0 2 ack 40 ------- 0 0.0.1.0 1.0.1.0 6 55
- 3.66124 0 2 ack 40 ------- 0 0.0.1.0 1.0.1.0 6 55
r 3.671342545 _1_ AGT  --- 47 tcp 5060 [13a 1 5 800] ------- [8388609:0 1:1 32 1] [17 0] 1 0
s 3.671342545 _1_ AGT  --- 58 ack 40 [0 0 0 0] ------- [1:1 8388609:0 32 0] [17 0] 0 0
+ 3.671343 1 0 ack 40 ------- 0 0.0.1.1 2.0.1.0 17 58
- 3.671343 1 0 ack 40 ------- 0 0.0.1.1 2.0.1.0 17 58
r 3.686973 1 0 ack 40 ------- 0 0.0.1.1 2.0.1.0 15 56
+ 3.686973 0 3 ack 40 ------- 0 0.0.1.1 2.0.1.0 15 56
- 3.686973 0 3 ack 40 ------- 0 0.0.1.1 2.0.1.0 15 56
r 3.698717 0 3 ack 40 ------- 0 0.0.1.1 2.0.1.0 13 46
r 3.713487676 _1_ AGT  --- 48 tcp 5060 [13a 1 5 800] ------- [8388609:0 1:1 32 1] [18 0] 1 0
s 3.713487676 _1_ AGT  --- 59 ack 40 [0 0 0 0] ------- [1:1 8388609:0 32 0] [18 0] 0 0
+ 3.713488 1 0 ack 40 ------- 0 0.0.1.1 2.0.1.0 18 59
- 3.713488 1 0 ack 40 ------- 0 0.0.1.1 2.0.1.0 18 59
r 3.715332524 _5_ AGT  --- 39 ack 40 [13a 5 3 800] ------- [1:1 8388609:0 29 8388609] [10 0] 1 0
s 3.715332524 _5_ AGT  --- 60 tcp 5040 [0 0 0 0] ------- [8388609:0 1:1 32 0] [21 0] 0 0
s 3.715332524 _5_ AGT  --- 61 tcp 5040 [0 0 0 0] ------- [8388609:0 1:1 32 0] [22 0] 0 0
r 3.717557656 _5_ AGT  --- 42 ack 40 [13a 5 3 800] ------- [1:1 8388609:0 29 8388609] [11 0] 1 0
s 3.717557656 _5_ AGT  --- 62 tcp 5040 [0 0 0 0] ------- [8388609:0 1:1 32 0] [23 0] 0 0
s 3.717557656 _5_ AGT  --- 63 tcp 5040 [0 0 0 0] ------- [8388609:0 1:1 32 0] [24 0] 0 0
r 3.728741 0 2 ack 40 ------- 0 0.0.1.0 1.0.1.0 3 49
r 3.729178 1 0 ack 40 ------- 0 0.0.1.1 2.0.1.0 16 57
+ 3.729178 0 3 ack 40 ------- 0 0.0.1.1 2.0.1.0 16 57
- 3.729178 0 3 ack 40 ------- 0 0.0.1.1 2.0.1.0 16 57
r 3.730462371 _4_ AGT  --- 49 ack 40 [13a 4 2 800] ------- [1:0 4194305:0 29 4194305] [3 0] 1 0
s 3.730462371 _4_ AGT  --- 64 tcp 1040 [0 0 0 0] ------- [4194305:0 1:0 32 0] [7 0] 0 0
s 3.730462371 _4_ AGT  --- 65 tcp 1040 [0 0 0 0] ------- [4194305:0 1:0 32 0] [8 0] 0 0
r 3.738927 0 2 ack 40 ------- 0 0.0.1.0 1.0.1.0 4 50
+ 3.740668 2 0 tcp 1060 ------- 0 1.0.1.0 0.0.1.0 7 64
- 3.740668 2 0 tcp 1060 ------- 0 1.0.1.0 0.0.1.0 7 64
r 3.742633199 _4_ AGT  --- 50 ack 40 [13a 4 2 800] ------- [1:0 4194305:0 29 4194305] [4 0] 1 0
s 3.742633199 _4_ AGT  --- 66 tcp 1040 [0 0 0 0] ------- [4194305:0 1:0 32 0] [9 0] 0 0
s 3.742633199 _4_ AGT  --- 67 tcp 1040 [0 0 0 0] ------- [4194305:0 1:0 32 0] [10 0] 0 0
r 3.742827 0 3 ack 40 ------- 0 0.0.1.1 2.0.1.0 14 51
r 3.751138 0 2 ack 40 ------- 0 0.0.1.0 1.0.1.0 5 54
+ 3.752839 2 0 tcp 1060 ------- 0 1.0.1.0 0.0.1.0 8 65
- 3.752839 2 0 tcp 1060 ------- 0 1.0.1.0 0.0.1.0 8 65
r 3.754764028 _4_ AGT  --- 54 ack 40 [13a 4 2 800] ------- [1:0 4194305:0 29 4194305] [5 0] 1 0
s 3.754764028 _4_ AGT  --- 68 tcp 1040 [0 0 0 0] ------- [4194305:0 1:0 32 0] [11 0] 0 0
s 3.754764028 _4_ AGT  --- 69 tcp 1040 [0 0 0 0] ------- [4194305:0 1:0 32 0] [12 0] 0 0
r 3.759562504 _1_ AGT  --- 52 tcp 5060 [13a 1 5 800] ------- [8388609:0 1:1 32 1] [19 0] 1 0
s 3.759562504 _1_ AGT  --- 70 ack 40 [0 0 0 0] ------- [1:1 8388609:0 32 0] [19 0] 0 0
+ 3.759563 1 0 ack 40 ------- 0 0.0.1.1 2.0.1.0 19 70
- 3.759563 1 0 ack 40 ------- 0 0.0.1.1 2.0.1.0 19 70
r 3.761244 0 2 ack 40 ------- 0 0.0.1.0 1.0.1.0 6 55
r 3.761487353 _5_ AGT  --- 43 ack 40 [13a 5 3 800] ------- [1:1 8388609:0 29 8388609] [12 0] 1 0
s 3.761487353 _5_ AGT  --- 71 tcp 5040 [0 0 0 0] ------- [8388609:0 1:1 32 0] [25 0] 0 0
s 3.761487353 _5_ AGT  --- 72 tcp 5040 [0 0 0 0] ------- [8388609:0 1:1 32 0] [26 0] 0 0
r 3.763472484 _5_ AGT  --- 46 ack 40 [13a 5 3 800] ------- [1:1 8388609:0 29 8388609] [13 0] 1 0
s 3.763472484 _5_ AGT  --- 73 tcp 5040 [0 0 0 0] ------- [8388609:0 1:1 32 0] [27 0] 0 0
s 3.763472484 _5_ AGT  --- 74 tcp 5040 [0 0 0 0] ------- [8388609:0 1:1 32 0] [28 0] 0 0
+ 3.765069 2 0 tcp 1060 ------- 0 1.0.1.0 0.0.1.0 9 66
- 3.765069 2 0 tcp 1060 ------- 0 1.0.1.0 0.0.1.0 9 66
r 3.765317616 _5_ AGT  --- 51 ack 40 [13a 5 3 800] ------- [1:1 8388609:0 29 8388609] [14 0] 1 0
s 3.765317616 _5_ AGT  --- 75 tcp 5040 [0 0 0 0] ------- [8388609:0 1:1 32 0] [29 0] 0 0
s 3.765317616 _5_ AGT  --- 76 tcp 5040 [0 0 0 0] ------- [8388609:0 1:1 32 0] [30 0] 0 0
r 3.767074856 _4_ AGT  --- 55 ack 40 [13a 4 2 800] ------- [1:0 4194305:0 29 4194305] [6 0] 1 0
s 3.767074856 _4_ AGT  --- 77 tcp 1040 [0 0 0 0] ------- [4194305:0 1:0 32 0] [13 0] 0 0
s 3.767074856 _4_ AGT  --- 78 tcp 1040 [0 0 0 0] ------- [4194305:0 1:0 32 0] [14 0] 0 0
r 3.771343 1 0 ack 40 ------- 0 0.0.1.1 2.0.1.0 17 58
+ 3.771343 0 3 ack 40 ------- 0 0.0.1.1 2.0.1.0 17 58
- 3.771343 0 3 ack 40 ------- 0 0.0.1.1 2.0.1.0 17 58
+ 3.77714 2 0 tcp 1060 ------- 0 1.0.1.0 0.0.1.0 10 67
- 3.77714 2 0 tcp 1060 ------- 0 1.0.1.0 0.0.1.0 10 67
r 3.786977 0 3 ack 40 ------- 0 0.0.1.1 2.0.1.0 15 56
+ 3.787186 2 0 tcp 1060 ------- 0 1.0.1.0 0.0.1.0 11 68
- 3.787186 2 0 tcp 1060 ------- 0 1.0.1.0 0.0.1.0 11 68
+ 3.797692 2 0 tcp 1060 ------- 0 1.0.1.0 0.0.1.0 12 69
- 3.797692 2 0 tcp 1060 ------- 0 1.0.1.0 0.0.1.0 12 69
r 3.807342464 _1_ AGT  --- 53 tcp 5060 [13a 1 5 800] ------- [8388609:0 1:1 32 1] [20 0] 1 0
s 3.807342464 _1_ AGT  --- 79 ack 40 [0 0 0 0] ------- [1:1 8388609:0 32 0] [20 0] 0 0
+ 3.807342 1 0 ack 40 ------- 0 0.0.1.1 2.0.1.0 20 79
- 3.807342 1 0 ack 40 ------- 0 0.0.1.1 2.0.1.0 20 79
+ 3.808278 2 0 tcp 1060 ------- 0 1.0.1.0 0.0.1.0 13 77
- 3.808278 2 0 tcp 1060 ------- 0 1.0.1.0 0.0.1.0 13 77
r 3.809227313 _5_ AGT  --- 56 ack 40 [13a 5 3 800] ------- [1:1 8388609:0 29 8388609] [15 0] 1 0
s 3.809227313 _5_ AGT  --- 80 tcp 5040 [0 0 0 0] ------- [8388609:0 1:1 32 0] [31 0] 0 0
s 3.809227313 _5_ AGT  --- 81 tcp 5040 [0 0 0 0] ------- [8388609:0 1:1 32 0] [32 0] 0 0
r 3.813488 1 0 ack 40 ------- 0 0.0.1.1 2.0.1.0 18 59
+ 3.813488 0 3 ack 40 ------- 0 0.0.1.1 2.0.1.0 18 59
- 3.813488 0 3 ack 40 ------- 0 0.0.1.1 2.0.1.0 18 59
+ 3.818284 2 0 tcp 1060 ------- 0 1.0.1.0 0.0.1.0 14 78
- 3.818284 2 0 tcp 1060 ------- 0 1.0.1.0 0.0.1.0 14 78
r 3.829182 0 3 ack 40 ------- 0 0.0.1.1 2.0.1.0 16 57
r 3.840774 2 0 tcp 1060 ------- 0 1.0.1.0 0.0.1.0 7 64
+ 3.840774 0 1 tcp 1060 ------- 0 1.0.1.0 0.0.1.0 7 64
- 3.840774 0 1 tcp 1060 ------- 0 1.0.1.0 0.0.1.0 7 64
r 3.851572161 _1_ AGT  --- 60 tcp 5060 [13a 1 5 800] ------- [8388609:0 1:1 32 1] [21 0] 1 0
s 3.851572161 _1_ AGT  --- 82 ack 40 [0 0 0 0] ------- [1:1 8388609:0 32 0] [21 0] 0 0
+ 3.851572 1 0 ack 40 ------- 0 0.0.1.1 2.0.1.0 21 82
- 3.851572 1 0 ack 40 ------- 0 0.0.1.1 2.0.1.0 21 82
r 3.852945 2 0 tcp 1060 ------- 0 1.0.1.0 0.0.1.0 8 65
+ 3.852945 0 1 tcp 1060 ------- 0 1.0.1.0 0.0.1.0 8 65
- 3.852945 0 1 tcp 1060 ------- 0 1.0.1.0 0.0.1.0 8 65
r 3.859563 1 0 ack 40 ------- 0 0.0.1.1 2.0.1.0 19 70
+ 3.859563 0 3 ack 40 ------- 0 0.0.1.1 2.0.1.0 19 70
- 3.859563 0 3 ack 40 ------- 0 0.0.1.1 2.0.1.0 19 70
r 3.865175 2 0 tcp 1060 ------- 0 1.0.1.0 0.0.1.0 9 66
+ 3.865175 0 1 tcp 1060 ------- 0 1.0.1.0 0.0.1.0 9 66
- 3.865175 0 1 tcp 1060 ------- 0 1.0.1.0 0.0.1.0 9 66
r 3.871347 0 3 ack 40 ------- 0 0.0.1.1 2.0.1.0 17 58
r 3.877246 2 0 tcp 1060 ------- 0 1.0.1.0 0.0.1.0 10 67
+ 3.877246 0 1 tcp 1060 ------- 0 1.0.1.0 0.0.1.0 10 67
- 3.877246 0 1 tcp 1060 ------- 0 1.0.1.0 0.0.1.0 10 67
r 3.887292 2 0 tcp 1060 ------- 0 1.0.1.0 0.0.1.0 11 68
+ 3.887292 0 1 tcp 1060 ------- 0 1.0.1.0 0.0.1.0 11 68
- 3.887292 0 1 tcp 1060 ------- 0 1.0.1.0 0.0.1.0 11 68
r 3.893577293 _1_ AGT  --- 61 tcp 5060 [13a 1 5 800] ------- [8388609:0 1:1 32 1] [22 0] 1 0
s 3.893577293 _1_ AGT  --- 83 ack 40 [0 0 0 0] ------- [1:1 8388609:0 32 0] [22 0] 0 0
+ 3.893577 1 0 ack 40 ------- 0 0.0.1.1 2.0.1.0 22 83
- 3.893577 1 0 ack 40 ------- 0 0.0.1.1 2.0.1.0 22 83
r 3.897798 2 0 tcp 1060 ------- 0 1.0.1.0 0.0.1.0 12 69
+ 3.897798 0 1 tcp 1060 ------- 0 1.0.1.0 0.0.1.0 12 69
- 3.897798 0 1 tcp 1060 ------- 0 1.0.1.0 0.0.1.0 12 69
r 3.907343 1 0 ack 40 ------- 0 0.0.1.1 2.0.1.0 20 79
+ 3.907343 0 3 ack 40 ------- 0 0.0.1.1 2.0.1.0 20 79
- 3.907343 0 3 ack 40 ------- 0 0.0.1.1 2.0.1.0 20 79
r 3.908384 2 0 tcp 1060 ------- 0 1.0.1.0 0.0.1.0 13 77
+ 3.908384 0 1 tcp 1060 ------- 0 1.0.1.0 0.0.1.0 13 77
- 3.908384 0 1 tcp 1060 ------- 0 1.0.1.0 0.0.1.0 13 77
r 3.913492 0 3 ack 40 ------- 0 0.0.1.1 2.0.1.0 18 59
r 3.91839 2 0 tcp 1060 ------- 0 1.0.1.0 0.0.1.0 14 78
+ 3.91839 0 1 tcp 1060 ------- 0 1.0.1.0 0.0.1.0 14 78
- 3.91839 0 1 tcp 1060 ------- 0 1.0.1.0 0.0.1.0 14 78
r 3.935582424 _1_ AGT  --- 62 tcp 5060 [13a 1 5 800] ------- [8388609:0 1:1 32 1] [23 0] 1 0
s 3.935582424 _1_ AGT  --- 84 ack 40 [0 0 0 0] ------- [1:1 8388609:0 32 0] [23 0] 0 0
+ 3.935582 1 0 ack 40 ------- 0 0.0.1.1 2.0.1.0 23 84
- 3.935582 1 0 ack 40 ------- 0 0.0.1.1 2.0.1.0 23 84
r 3.937627272 _5_ AGT  --- 57 ack 40 [13a 5 3 800] ------- [1:1 8388609:0 29 8388609] [16 0] 1 0
s 3.937627272 _5_ AGT  --- 85 tcp 5040 [0 0 0 0] ------- [8388609:0 1:1 32 0] [33 0] 0 0
s 3.937627272 _5_ AGT  --- 86 tcp 5040 [0 0 0 0] ------- [8388609:0 1:1 32 0] [34 0] 0 0
r 3.940784 0 1 tcp 1060 ------- 0 1.0.1.0 0.0.1.0 7 64
r 3.940784385 _1_ AGT  --- 64 tcp 1060 [13a 2 4 800] ------- [4194305:0 1:0 30 4194304] [7 0] 1 0
s 3.940784385 _1_ AGT  --- 87 ack 40 [0 0 0 0] ------- [1:0 4194305:0 32 0] [7 0] 0 0
+ 3.940784 1 0 ack 40 ------- 0 0.0.1.0 1.0.1.0 7 87
- 3.940784 1 0 ack 40 ------- 0 0.0.1.0 1.0.1.0 7 87
r 3.951573 1 0 ack 40 ------- 0 0.0.1.1 2.0.1.0 21 82
+ 3.951573 0 3 ack 40 ------- 0 0.0.1.1 2.0.1.0 21 82
- 3.951573 0 3 ack 40 ------- 0 0.0.1.1 2.0.1.0 21 82
r 3.952955 0 1 tcp 1060 ------- 0 1.0.1.0 0.0.1.0 8 65
r 3.952955214 _1_ AGT  --- 65 tcp 1060 [13a 2 4 800] ------- [4194305:0 1:0 30 4194304] [8 0] 1 0
s 3.952955214 _1_ AGT  --- 88 ack 40 [0 0 0 0] ------- [1:0 4194305:0 32 0] [8 0] 0 0
+ 3.952955 1 0 ack 40 ------- 0 0.0.1.0 1.0.1.0 8 88
- 3.952955 1 0 ack 40 ------- 0 0.0.1.0 1.0.1.0 8 88
r 3.959567 0 3 ack 40 ------- 0 0.0.1.1 2.0.1.0 19 70
r 3.965186 0 1 tcp 1060 ------- 0 1.0.1.0 0.0.1.0 9 66
r 3.965186042 _1_ AGT  --- 66 tcp 1060 [13a 2 4 800] ------- [4194305:0 1:0 30 4194304] [9 0] 1 0
s 3.965186042 _1_ AGT  --- 89 ack 40 [0 0 0 0] ------- [1:0 4194305:0 32 0] [9 0] 0 0
+ 3.965186 1 0 ack 40 ------- 0 0.0.1.0 1.0.1.0 9 89
- 3.965186 1 0 ack 40 ------- 0 0.0.1.0 1.0.1.0 9 89
r 3.977257 0 1 tcp 1060 ------- 0 1.0.1.0 0.0.1.0 10 67
r 3.977256870 _1_ AGT  --- 67 tcp 1060 [13a 2 4 800] ------- [4194305:0 1:0 30 4194304] [10 0] 1 0
s 3.977256870 _1_ AGT  --- 90 ack 40 [0 0 0 0] ------- [1:0 4194305:0 32 0] [10 0] 0 0
+ 3.977257 1 0 ack 40 ------- 0 0.0.1.0 1.0.1.0 10 90
- 3.977257 1 0 ack 40 ------- 0 0.0.1.0 1.0.1.0 10 90
r 3.979772121 _1_ AGT  --- 63 tcp 5060 [13a 1 5 800] ------- [8388609:0 1:1 32 1] [24 0] 1 0
s 3.979772121 _1_ AGT  --- 91 ack 40 [0 0 0 0] ------- [1:1 8388609:0 32 0] [24 0] 0 0
+ 3.979772 1 0 ack 40 ------- 0 0.0.1.1 2.0.1.0 24 91
- 3.979772 1 0 ack 40 ------- 0 0.0.1.1 2.0.1.0 24 91
r 3.981876970 _5_ AGT  --- 58 ack 40 [13a 5 3 800] ------- [1:1 8388609:0 29 8388609] [17 0] 1 0
s 3.981876970 _5_ AGT  --- 92 tcp 5040 [0 0 0 0] ------- [8388609:0 1:1 32 0] [35 0] 0 0
s 3.981876970 _5_ AGT  --- 93 tcp 5040 [0 0 0 0] ------- [8388609:0 1:1 32 0] [36 0] 0 0
r 3.987303 0 1 tcp 1060 ------- 0 1.0.1.0 0.0.1.0 11 68
r 3.987302756 _1_ AGT  --- 68 tcp 1060 [13a 2 4 800] ------- [4194305:0 1:0 30 4194304] [11 0] 1 0
s 3.987302756 _1_ AGT  --- 94 ack 40 [0 0 0 0] ------- [1:0 4194305:0 32 0] [11 0] 0 0
+ 3.987303 1 0 ack 40 ------- 0 0.0.1.0 1.0.1.0 11 94
- 3.987303 1 0 ack 40 ------- 0 0.0.1.0 1.0.1.0 11 94
r 3.993578 1 0 ack 40 ------- 0 0.0.1.1 2.0.1.0 22 83
+ 3.993578 0 3 ack 40 ------- 0 0.0.1.1 2.0.1.0 22 83
- 3.993578 0 3 ack 40 ------- 0 0.0.1.1 2.0.1.0 22 83
r 3.997809 0 1 tcp 1060 ------- 0 1.0.1.0 0.0.1.0 12 69
r 3.997808642 _1_ AGT  --- 69 tcp 1060 [13a 2 4 800] ------- [4194305:0 1:0 30 4194304] [12 0] 1 0
s 3.997808642 _1_ AGT  --- 95 ack 40 [0 0 0 0] ------- [1:0 4194305:0 32 0] [12 0] 0 0
+ 3.997809 1 0 ack 40 ------- 0 0.0.1.0 1.0.1.0 12 95
- 3.997809 1 0 ack 40 ------- 0 0.0.1.0 1.0.1.0 12 95
r 4.007347 0 3 ack 40 ------- 0 0.0.1.1 2.0.1.0 20 79
r 4.008395 0 1 tcp 1060 ------- 0 1.0.1.0 0.0.1.0 13 77
r 4.008394527 _1_ AGT  --- 77 tcp 1060 [13a 2 4 800] ------- [4194305:0 1:0 30 4194304] [13 0] 1 0
s 4.008394527 _1_ AGT  --- 96 ack 40 [0 0 0 0] ------- [1:0 4194305:0 32 0] [13 0] 0 0
+ 4.008395 1 0 ack 40 ------- 0 0.0.1.0 1.0.1.0 13 96
- 4.008395 1 0 ack 40 ------- 0 0.0.1.0 1.0.1.0 13 96
r 4.0184 0 1 tcp 1060 ------- 0 1.0.1.0 0.0.1.0 14 78
r 4.018400413 _1_ AGT  --- 78 tcp 1060 [13a 2 4 800] ------- [4194305:0 1:0 30 4194304] [14 0] 1 0
s 4.018400413 _1_ AGT  --- 97 ack 40 [0 0 0 0] ------- [1:0 4194305:0 32 0] [14 0] 0 0
+ 4.0184 1 0 ack 40 ------- 0 0.0.1.0 1.0.1.0 14 97
- 4.0184 1 0 ack 40 ------- 0 0.0.1.0 1.0.1.0 14 97
r 4.023961818 _1_ AGT  --- 71 tcp 5060 [13a 1 5 800] ------- [8388609:0 1:1 32 1] [25 0] 1 0
s 4.023961818 _1_ AGT  --- 98 ack 40 [0 0 0 0] ------- [1:1 8388609:0 32 0] [25 0] 0 0
+ 4.023962 1 0 ack 40 ------- 0 0.0.1.1 2.0.1.0 25 98