h 0.1 0 4 tcp 40 ------- 0 0.0 3.0 0 0
h 0.2 2 4 tcp 40 ------- 0 2.0 1.0 0 1
+ 0.2 0 4 tcp 40 ------- 0 0.0 3.0 0 0
- 0.2 0 4 tcp 40 ------- 0 0.0 3.0 0 0
+ 0.3 2 4 tcp 40 ------- 0 2.0 1.0 0 1
- 0.3 2 4 tcp 40 ------- 0 2.0 1.0 0 1
r 0.30001 4 3 tcp 40 ------- 0 0.0 3.0 0 0
h 0.30001 3 4 ack 40 ------- 0 3.0 0.0 0 2
+ 0.40001 3 4 ack 40 ------- 0 3.0 0.0 0 2
- 0.40001 3 4 ack 40 ------- 0 3.0 0.0 0 2
r 0.40001 4 1 tcp 40 ------- 0 2.0 1.0 0 1
h 0.40001 1 4 ack 40 ------- 0 1.0 2.0 0 3
+ 0.50001 1 4 ack 40 ------- 0 1.0 2.0 0 3
- 0.50001 1 4 ack 40 ------- 0 1.0 2.0 0 3
r 0.500021 4 0 ack 40 ------- 0 3.0 0.0 0 2
h 0.500021 0 4 tcp 1040 ------- 0 0.0 3.0 1 4
h 0.500021 0 4 tcp 1040 ------- 0 0.0 3.0 2 5
+ 0.600021 0 4 tcp 1040 ------- 0 0.0 3.0 1 4
- 0.600021 0 4 tcp 1040 ------- 0 0.0 3.0 1 4
+ 0.600021 0 4 tcp 1040 ------- 0 0.0 3.0 2 5
r 0.600021 4 2 ack 40 ------- 0 1.0 2.0 0 3
h 0.600021 2 4 tcp 1040 ------- 0 2.0 1.0 1 6
h 0.600021 2 4 tcp 1040 ------- 0 2.0 1.0 2 7
- 0.600127 0 4 tcp 1040 ------- 0 0.0 3.0 2 5
+ 0.700021 2 4 tcp 1040 ------- 0 2.0 1.0 1 6
- 0.700021 2 4 tcp 1040 ------- 0 2.0 1.0 1 6
+ 0.700021 2 4 tcp 1040 ------- 0 2.0 1.0 2 7
- 0.700127 2 4 tcp 1040 ------- 0 2.0 1.0 2 7
r 0.70013 4 3 tcp 1040 ------- 0 0.0 3.0 1 4
h 0.70013 3 4 ack 40 ------- 0 3.0 0.0 1 8
r 0.700237 4 3 tcp 1040 ------- 0 0.0 3.0 2 5
h 0.700237 3 4 ack 40 ------- 0 3.0 0.0 2 9
+ 0.80013 3 4 ack 40 ------- 0 3.0 0.0 1 8
- 0.80013 3 4 ack 40 ------- 0 3.0 0.0 1 8
r 0.80013 4 1 tcp 1040 ------- 0 2.0 1.0 1 6
h 0.80013 1 4 ack 40 ------- 0 1.0 2.0 1 10
+ 0.800237 3 4 ack 40 ------- 0 3.0 0.0 2 9
- 0.800237 3 4 ack 40 ------- 0 3.0 0.0 2 9
r 0.800237 4 1 tcp 1040 ------- 0 2.0 1.0 2 7
h 0.800237 1 4 ack 40 ------- 0 1.0 2.0 2 11
+ 0.90013 1 4 ack 40 ------- 0 1.0 2.0 1 10
- 0.90013 1 4 ack 40 ------- 0 1.0 2.0 1 10
r 0.900141 4 0 ack 40 ------- 0 3.0 0.0 1 8
h 0.900141 0 4 tcp 1040 ------- 0 0.0 3.0 3 12
h 0.900141 0 4 tcp 1040 ------- 0 0.0 3.0 4 13
+ 0.900237 1 4 ack 40 ------- 0 1.0 2.0 2 11
- 0.900237 1 4 ack 40 ------- 0 1.0 2.0 2 11
r 0.900247 4 0 ack 40 ------- 0 3.0 0.0 2 9
h 0.900247 0 4 tcp 1040 ------- 0 0.0 3.0 5 14
h 0.900247 0 4 tcp 1040 ------- 0 0.0 3.0 6 15
+ 1.000141 0 4 tcp 1040 ------- 0 0.0 3.0 3 12
- 1.000141 0 4 tcp 1040 ------- 0 0.0 3.0 3 12
+ 1.000141 0 4 tcp 1040 ------- 0 0.0 3.0 4 13
r 1.000141 4 2 ack 40 ------- 0 1.0 2.0 1 10
h 1.000141 2 4 tcp 1040 ------- 0 2.0 1.0 3 16
h 1.000141 2 4 tcp 1040 ------- 0 2.0 1.0 4 17
+ 1.000247 0 4 tcp 1040 ------- 0 0.0 3.0 5 14
+ 1.000247 0 4 tcp 1040 ------- 0 0.0 3.0 6 15
r 1.000247 4 2 ack 40 ------- 0 1.0 2.0 2 11
h 1.000247 2 4 tcp 1040 ------- 0 2.0 1.0 5 18
h 1.000247 2 4 tcp 1040 ------- 0 2.0 1.0 6 19
- 1.000247 0 4 tcp 1040 ------- 0 0.0 3.0 4 13
- 1.000354 0 4 tcp 1040 ------- 0 0.0 3.0 5 14
- 1.00046 0 4 tcp 1040 ------- 0 0.0 3.0 6 15
+ 1.100141 2 4 tcp 1040 ------- 0 2.0 1.0 3 16
- 1.100141 2 4 tcp 1040 ------- 0 2.0 1.0 3 16
+ 1.100141 2 4 tcp 1040 ------- 0 2.0 1.0 4 17
+ 1.100247 2 4 tcp 1040 ------- 0 2.0 1.0 5 18
+ 1.100247 2 4 tcp 1040 ------- 0 2.0 1.0 6 19
- 1.100247 2 4 tcp 1040 ------- 0 2.0 1.0 4 17
r 1.10025 4 3 tcp 1040 ------- 0 0.0 3.0 3 12
h 1.10025 3 4 ack 40 ------- 0 3.0 0.0 3 20
- 1.100354 2 4 tcp 1040 ------- 0 2.0 1.0 5 18
r 1.100357 4 3 tcp 1040 ------- 0 0.0 3.0 4 13
h 1.100357 3 4 ack 40 ------- 0 3.0 0.0 4 21
- 1.10046 2 4 tcp 1040 ------- 0 2.0 1.0 6 19
r 1.100463 4 3 tcp 1040 ------- 0 0.0 3.0 5 14
h 1.100463 3 4 ack 40 ------- 0 3.0 0.0 5 22
r 1.10057 4 3 tcp 1040 ------- 0 0.0 3.0 6 15
h 1.10057 3 4 ack 40 ------- 0 3.0 0.0 6 23
+ 1.20025 3 4 ack 40 ------- 0 3.0 0.0 3 20
- 1.20025 3 4 ack 40 ------- 0 3.0 0.0 3 20
r 1.20025 4 1 tcp 1040 ------- 0 2.0 1.0 3 16
h 1.20025 1 4 ack 40 ------- 0 1.0 2.0 3 24
+ 1.200357 3 4 ack 40 ------- 0 3.0 0.0 4 21
- 1.200357 3 4 ack 40 ------- 0 3.0 0.0 4 21
r 1.200357 4 1 tcp 1040 ------- 0 2.0 1.0 4 17
h 1.200357 1 4 ack 40 ------- 0 1.0 2.0 4 25
+ 1.200463 3 4 ack 40 ------- 0 3.0 0.0 5 22
- 1.200463 3 4 ack 40 ------- 0 3.0 0.0 5 22
r 1.200463 4 1 tcp 1040 ------- 0 2.0 1.0 5 18
h 1.200463 1 4 ack 40 ------- 0 1.0 2.0 5 26
+ 1.20057 3 4 ack 40 ------- 0 3.0 0.0 6 23
- 1.20057 3 4 ack 40 ------- 0 3.0 0.0 6 23
r 1.20057 4 1 tcp 1040 ------- 0 2.0 1.0 6 19
h 1.20057 1 4 ack 40 ------- 0 1.0 2.0 6 27
+ 1.30025 1 4 ack 40 ------- 0 1.0 2.0 3 24
- 1.30025 1 4 ack 40 ------- 0 1.0 2.0 3 24
r 1.30026 4 0 ack 40 ------- 0 3.0 0.0 3 20
h 1.30026 0 4 tcp 1040 ------- 0 0.0 3.0 7 28
h 1.30026 0 4 tcp 1040 ------- 0 0.0 3.0 8 29
+ 1.300357 1 4 ack 40 ------- 0 1.0 2.0 4 25
- 1.300357 1 4 ack 40 ------- 0 1.0 2.0 4 25
r 1.300367 4 0 ack 40 ------- 0 3.0 0.0 4 21
h 1.300367 0 4 tcp 1040 ------- 0 0.0 3.0 9 30
h 1.300367 0 4 tcp 1040 ------- 0 0.0 3.0 10 31
+ 1.300463 1 4 ack 40 ------- 0 1.0 2.0 5 26
- 1.300463 1 4 ack 40 ------- 0 1.0 2.0 5 26
r 1.300474 4 0 ack 40 ------- 0 3.0 0.0 5 22
h 1.300474 0 4 tcp 1040 ------- 0 0.0 3.0 11 32
h 1.300474 0 4 tcp 1040 ------- 0 0.0 3.0 12 33
+ 1.30057 1 4 ack 40 ------- 0 1.0 2.0 6 27
- 1.30057 1 4 ack 40 ------- 0 1.0 2.0 6 27
r 1.30058 4 0 ack 40 ------- 0 3.0 0.0 6 23
h 1.30058 0 4 tcp 1040 ------- 0 0.0 3.0 13 34
h 1.30058 0 4 tcp 1040 ------- 0 0.0 3.0 14 35
+ 1.40026 0 4 tcp 1040 ------- 0 0.0 3.0 7 28
- 1.40026 0 4 tcp 1040 ------- 0 0.0 3.0 7 28
+ 1.40026 0 4 tcp 1040 ------- 0 0.0 3.0 8 29
r 1.40026 4 2 ack 40 ------- 0 1.0 2.0 3 24
h 1.40026 2 4 tcp 1040 ------- 0 2.0 1.0 7 36
h 1.40026 2 4 tcp 1040 ------- 0 2.0 1.0 8 37
+ 1.400367 0 4 tcp 1040 ------- 0 0.0 3.0 9 30
+ 1.400367 0 4 tcp 1040 ------- 0 0.0 3.0 10 31
r 1.400367 4 2 ack 40 ------- 0 1.0 2.0 4 25
h 1.400367 2 4 tcp 1040 ------- 0 2.0 1.0 9 38
h 1.400367 2 4 tcp 1040 ------- 0 2.0 1.0 10 39
- 1.400367 0 4 tcp 1040 ------- 0 0.0 3.0 8 29
+ 1.400474 0 4 tcp 1040 ------- 0 0.0 3.0 11 32
+ 1.400474 0 4 tcp 1040 ------- 0 0.0 3.0 12 33
r 1.400474 4 2 ack 40 ------- 0 1.0 2.0 5 26
h 1.400474 2 4 tcp 1040 ------- 0 2.0 1.0 11 40
h 1.400474 2 4 tcp 1040 ------- 0 2.0 1.0 12 41
- 1.400474 0 4 tcp 1040 ------- 0 0.0 3.0 9 30
+ 1.40058 0 4 tcp 1040 ------- 0 0.0 3.0 13 34
+ 1.40058 0 4 tcp 1040 ------- 0 0.0 3.0 14 35
r 1.40058 4 2 ack 40 ------- 0 1.0 2.0 6 27
h 1.40058 2 4 tcp 1040 ------- 0 2.0 1.0 13 42
h 1.40058 2 4 tcp 1040 ------- 0 2.0 1.0 14 43
- 1.40058 0 4 tcp 1040 ------- 0 0.0 3.0 10 31
- 1.400687 0 4 tcp 1040 ------- 0 0.0 3.0 11 32
- 1.400793 0 4 tcp 1040 ------- 0 0.0 3.0 12 33
- 1.4009 0 4 tcp 1040 ------- 0 0.0 3.0 13 34
- 1.401007 0 4 tcp 1040 ------- 0 0.0 3.0 14 35
+ 1.50026 2 4 tcp 1040 ------- 0 2.0 1.0 7 36
- 1.50026 2 4 tcp 1040 ------- 0 2.0 1.0 7 36
+ 1.50026 2 4 tcp 1040 ------- 0 2.0 1.0 8 37
+ 1.500367 2 4 tcp 1040 ------- 0 2.0 1.0 9 38
+ 1.500367 2 4 tcp 1040 ------- 0 2.0 1.0 10 39
- 1.500367 2 4 tcp 1040 ------- 0 2.0 1.0 8 37
r 1.50037 4 3 tcp 1040 ------- 0 0.0 3.0 7 28
h 1.50037 3 4 ack 40 ------- 0 3.0 0.0 7 44
+ 1.500474 2 4 tcp 1040 ------- 0 2.0 1.0 11 40
+ 1.500474 2 4 tcp 1040 ------- 0 2.0 1.0 12 41
- 1.500474 2 4 tcp 1040 ------- 0 2.0 1.0 9 38
r 1.500476 4 3 tcp 1040 ------- 0 0.0 3.0 8 29
h 1.500476 3 4 ack 40 ------- 0 3.0 0.0 8 45
+ 1.50058 2 4 tcp 1040 ------- 0 2.0 1.0 13 42
+ 1.50058 2 4 tcp 1040 ------- 0 2.0 1.0 14 43
- 1.50058 2 4 tcp 1040 ------- 0 2.0 1.0 10 39
r 1.500583 4 3 tcp 1040 ------- 0 0.0 3.0 9 30
h 1.500583 3 4 ack 40 ------- 0 3.0 0.0 9 46
- 1.500687 2 4 tcp 1040 ------- 0 2.0 1.0 11 40
r 1.50069 4 3 tcp 1040 ------- 0 0.0 3.0 10 31
h 1.50069 3 4 ack 40 ------- 0 3.0 0.0 10 47
- 1.500793 2 4 tcp 1040 ------- 0 2.0 1.0 12 41
r 1.500796 4 3 tcp 1040 ------- 0 0.0 3.0 11 32
h 1.500796 3 4 ack 40 ------- 0 3.0 0.0 11 48
- 1.5009 2 4 tcp 1040 ------- 0 2.0 1.0 13 42
r 1.500903 4 3 tcp 1040 ------- 0 0.0 3.0 12 33
h 1.500903 3 4 ack 40 ------- 0 3.0 0.0 12 49
- 1.501007 2 4 tcp 1040 ------- 0 2.0 1.0 14 43
r 1.501009 4 3 tcp 1040 ------- 0 0.0 3.0 13 34
h 1.501009 3 4 ack 40 ------- 0 3.0 0.0 13 50
r 1.501116 4 3 tcp 1040 ------- 0 0.0 3.0 14 35
h 1.501116 3 4 ack 40 ------- 0 3.0 0.0 14 51
+ 1.60037 3 4 ack 40 ------- 0 3.0 0.0 7 44
- 1.60037 3 4 ack 40 ------- 0 3.0 0.0 7 44
r 1.60037 4 1 tcp 1040 ------- 0 2.0 1.0 7 36
h 1.60037 1 4 ack 40 ------- 0 1.0 2.0 7 52
+ 1.600476 3 4 ack 40 ------- 0 3.0 0.0 8 45
- 1.600476 3 4 ack 40 ------- 0 3.0 0.0 8 45
r 1.600476 4 1 tcp 1040 ------- 0 2.0 1.0 8 37
h 1.600476 1 4 ack 40 ------- 0 1.0 2.0 8 53
+ 1.600583 3 4 ack 40 ------- 0 3.0 0.0 9 46
- 1.600583 3 4 ack 40 ------- 0 3.0 0.0 9 46
r 1.600583 4 1 tcp 1040 ------- 0 2.0 1.0 9 38
h 1.600583 1 4 ack 40 ------- 0 1.0 2.0 9 54
+ 1.60069 3 4 ack 40 ------- 0 3.0 0.0 10 47
- 1.60069 3 4 ack 40 ------- 0 3.0 0.0 10 47
r 1.60069 4 1 tcp 1040 ------- 0 2.0 1.0 10 39
h 1.60069 1 4 ack 40 ------- 0 1.0 2.0 10 55
+ 1.600796 3 4 ack 40 ------- 0 3.0 0.0 11 48
- 1.600796 3 4 ack 40 ------- 0 3.0 0.0 11 48
r 1.600796 4 1 tcp 1040 ------- 0 2.0 1.0 11 40
h 1.600796 1 4 ack 40 ------- 0 1.0 2.0 11 56
+ 1.600903 3 4 ack 40 ------- 0 3.0 0.0 12 49
- 1.600903 3 4 ack 40 ------- 0 3.0 0.0 12 49
r 1.600903 4 1 tcp 1040 ------- 0 2.0 1.0 12 41
h 1.600903 1 4 ack 40 ------- 0 1.0 2.0 12 57
+ 1.601009 3 4 ack 40 ------- 0 3.0 0.0 13 50
- 1.601009 3 4 ack 40 ------- 0 3.0 0.0 13 50
r 1.601009 4 1 tcp 1040 ------- 0 2.0 1.0 13 42
h 1.601009 1 4 ack 40 ------- 0 1.0 2.0 13 58
+ 1.601116 3 4 ack 40 ------- 0 3.0 0.0 14 51
- 1.601116 3 4 ack 40 ------- 0 3.0 0.0 14 51
r 1.601116 4 1 tcp 1040 ------- 0 2.0 1.0 14 43
h 1.601116 1 4 ack 40 ------- 0 1.0 2.0 14 59
+ 1.70037 1 4 ack 40 ------- 0 1.0 2.0 7 52
- 1.70037 1 4 ack 40 ------- 0 1.0 2.0 7 52
r 1.70038 4 0 ack 40 ------- 0 3.0 0.0 7 44
+ 1.700476 1 4 ack 40 ------- 0 1.0 2.0 8 53
- 1.700476 1 4 ack 40 ------- 0 1.0 2.0 8 53
r 1.700487 4 0 ack 40 ------- 0 3.0 0.0 8 45
+ 1.700583 1 4 ack 40 ------- 0 1.0 2.0 9 54
- 1.700583 1 4 ack 40 ------- 0 1.0 2.0 9 54
r 1.700593 4 0 ack 40 ------- 0 3.0 0.0 9 46
+ 1.70069 1 4 ack 40 ------- 0 1.0 2.0 10 55
- 1.70069 1 4 ack 40 ------- 0 1.0 2.0 10 55
r 1.7007 4 0 ack 40 ------- 0 3.0 0.0 10 47
+ 1.700796 1 4 ack 40 ------- 0 1.0 2.0 11 56
- 1.700796 1 4 ack 40 ------- 0 1.0 2.0 11 56
r 1.700807 4 0 ack 40 ------- 0 3.0 0.0 11 48
+ 1.700903 1 4 ack 40 ------- 0 1.0 2.0 12 57
- 1.700903 1 4 ack 40 ------- 0 1.0 2.0 12 57
r 1.700913 4 0 ack 40 ------- 0 3.0 0.0 12 49
+ 1.701009 1 4 ack 40 ------- 0 1.0 2.0 13 58
- 1.701009 1 4 ack 40 ------- 0 1.0 2.0 13 58
r 1.70102 4 0 ack 40 ------- 0 3.0 0.0 13 50
+ 1.701116 1 4 ack 40 ------- 0 1.0 2.0 14 59
- 1.701116 1 4 ack 40 ------- 0 1.0 2.0 14 59
r 1.701126 4 0 ack 40 ------- 0 3.0 0.0 14 51
r 1.80038 4 2 ack 40 ------- 0 1.0 2.0 7 52
h 1.80038 2 4 tcp 1040 ------- 0 2.0 1.0 15 60
h 1.80038 2 4 tcp 1040 ------- 0 2.0 1.0 16 61
r 1.800487 4 2 ack 40 ------- 0 1.0 2.0 8 53
h 1.800487 2 4 tcp 1040 ------- 0 2.0 1.0 17 62
h 1.800487 2 4 tcp 1040 ------- 0 2.0 1.0 18 63
r 1.800593 4 2 ack 40 ------- 0 1.0 2.0 9 54
h 1.800593 2 4 tcp 1040 ------- 0 2.0 1.0 19 64
h 1.800593 2 4 tcp 1040 ------- 0 2.0 1.0 20 65
r 1.8007 4 2 ack 40 ------- 0 1.0 2.0 10 55
h 1.8007 2 4 tcp 1040 ------- 0 2.0 1.0 21 66
h 1.8007 2 4 tcp 1040 ------- 0 2.0 1.0 22 67
r 1.800807 4 2 ack 40 ------- 0 1.0 2.0 11 56
h 1.800807 2 4 tcp 1040 ------- 0 2.0 1.0 23 68
h 1.800807 2 4 tcp 1040 ------- 0 2.0 1.0 24 69
r 1.800913 4 2 ack 40 ------- 0 1.0 2.0 12 57
h 1.800913 2 4 tcp 1040 ------- 0 2.0 1.0 25 70
h 1.800913 2 4 tcp 1040 ------- 0 2.0 1.0 26 71
r 1.80102 4 2 ack 40 ------- 0 1.0 2.0 13 58
h 1.80102 2 4 tcp 1040 ------- 0 2.0 1.0 27 72
h 1.80102 2 4 tcp 1040 ------- 0 2.0 1.0 28 73
r 1.801126 4 2 ack 40 ------- 0 1.0 2.0 14 59
h 1.801126 2 4 tcp 1040 ------- 0 2.0 1.0 29 74
h 1.801126 2 4 tcp 1040 ------- 0 2.0 1.0 30 75
+ 1.90038 2 4 tcp 1040 ------- 0 2.0 1.0 15 60
- 1.90038 2 4 tcp 1040 ------- 0 2.0 1.0 15 60
+ 1.90038 2 4 tcp 1040 ------- 0 2.0 1.0 16 61
+ 1.900487 2 4 tcp 1040 ------- 0 2.0 1.0 17 62
+ 1.900487 2 4 tcp 1040 ------- 0 2.0 1.0 18 63
- 1.900487 2 4 tcp 1040 ------- 0 2.0 1.0 16 61
+ 1.900593 2 4 tcp 1040 ------- 0 2.0 1.0 19 64
+ 1.900593 2 4 tcp 1040 ------- 0 2.0 1.0 20 65
- 1.900593 2 4 tcp 1040 ------- 0 2.0 1.0 17 62
+ 1.9007 2 4 tcp 1040 ------- 0 2.0 1.0 21 66
+ 1.9007 2 4 tcp 1040 ------- 0 2.0 1.0 22 67
- 1.9007 2 4 tcp 1040 ------- 0 2.0 1.0 18 63
+ 1.900807 2 4 tcp 1040 ------- 0 2.0 1.0 23 68
+ 1.900807 2 4 tcp 1040 ------- 0 2.0 1.0 24 69
- 1.900807 2 4 tcp 1040 ------- 0 2.0 1.0 19 64
+ 1.900913 2 4 tcp 1040 ------- 0 2.0 1.0 25 70
+ 1.900913 2 4 tcp 1040 ------- 0 2.0 1.0 26 71
- 1.900913 2 4 tcp 1040 ------- 0 2.0 1.0 20 65
+ 1.90102 2 4 tcp 1040 ------- 0 2.0 1.0 27 72
+ 1.90102 2 4 tcp 1040 ------- 0 2.0 1.0 28 73
- 1.90102 2 4 tcp 1040 ------- 0 2.0 1.0 21 66
+ 1.901126 2 4 tcp 1040 ------- 0 2.0 1.0 29 74
+ 1.901126 2 4 tcp 1040 ------- 0 2.0 1.0 30 75
- 1.901126 2 4 tcp 1040 ------- 0 2.0 1.0 22 67
- 1.901233 2 4 tcp 1040 ------- 0 2.0 1.0 23 68
- 1.90134 2 4 tcp 1040 ------- 0 2.0 1.0 24 69
- 1.901446 2 4 tcp 1040 ------- 0 2.0 1.0 25 70
- 1.901553 2 4 tcp 1040 ------- 0 2.0 1.0 26 71
- 1.901659 2 4 tcp 1040 ------- 0 2.0 1.0 27 72
- 1.901766 2 4 tcp 1040 ------- 0 2.0 1.0 28 73
- 1.901873 2 4 tcp 1040 ------- 0 2.0 1.0 29 74
- 1.901979 2 4 tcp 1040 ------- 0 2.0 1.0 30 75
h 2 0 4 tcp 1040 ------- 0 0.0 3.0 15 76
h 2 0 4 tcp 1040 ------- 0 0.0 3.0 16 77
h 2 0 4 tcp 1040 ------- 0 0.0 3.0 17 78
h 2 0 4 tcp 1040 ------- 0 0.0 3.0 18 79
h 2 0 4 tcp 1040 ------- 0 0.0 3.0 19 80
h 2 0 4 tcp 1040 ------- 0 0.0 3.0 20 81
h 2 0 4 tcp 1040 ------- 0 0.0 3.0 21 82
h 2 0 4 tcp 1040 ------- 0 0.0 3.0 22 83
h 2 0 4 tcp 1040 ------- 0 0.0 3.0 23 84
h 2 0 4 tcp 1040 ------- 0 0.0 3.0 24 85
r 2.00049 4 1 tcp 1040 ------- 0 2.0 1.0 15 60
h 2.00049 1 4 ack 40 ------- 0 1.0 2.0 15 86
r 2.000596 4 1 tcp 1040 ------- 0 2.0 1.0 16 61
h 2.000596 1 4 ack 40 ------- 0 1.0 2.0 16 87
r 2.000703 4 1 tcp 1040 ------- 0 2.0 1.0 17 62
h 2.000703 1 4 ack 40 ------- 0 1.0 2.0 17 88
r 2.000809 4 1 tcp 1040 ------- 0 2.0 1.0 18 63
h 2.000809 1 4 ack 40 ------- 0 1.0 2.0 18 89
r 2.000916 4 1 tcp 1040 ------- 0 2.0 1.0 19 64
h 2.000916 1 4 ack 40 ------- 0 1.0 2.0 19 90
r 2.001023 4 1 tcp 1040 ------- 0 2.0 1.0 20 65
h 2.001023 1 4 ack 40 ------- 0 1.0 2.0 20 91
r 2.001129 4 1 tcp 1040 ------- 0 2.0 1.0 21 66
h 2.001129 1 4 ack 40 ------- 0 1.0 2.0 21 92
r 2.001236 4 1 tcp 1040 ------- 0 2.0 1.0 22 67
h 2.001236 1 4 ack 40 ------- 0 1.0 2.0 22 93
r 2.001342 4 1 tcp 1040 ------- 0 2.0 1.0 23 68
h 2.001342 1 4 ack 40 ------- 0 1.0 2.0 23 94
r 2.001449 4 1 tcp 1040 ------- 0 2.0 1.0 24 69
h 2.001449 1 4 ack 40 ------- 0 1.0 2.0 24 95
r 2.001556 4 1 tcp 1040 ------- 0 2.0 1.0 25 70
h 2.001556 1 4 ack 40 ------- 0 1.0 2.0 25 96
r 2.001662 4 1 tcp 1040 ------- 0 2.0 1.0 26 71
h 2.001662 1 4 ack 40 ------- 0 1.0 2.0 26 97
r 2.001769 4 1 tcp 1040 ------- 0 2.0 1.0 27 72
h 2.001769 1 4 ack 40 ------- 0 1.0 2.0 27 98
r 2.001875 4 1 tcp 1040 ------- 0 2.0 1.0 28 73
h 2.001875 1 4 ack 40 ------- 0 1.0 2.0 28 99
r 2.001982 4 1 tcp 1040 ------- 0 2.0 1.0 29 74
h 2.001982 1 4 ack 40 ------- 0 1.0 2.0 29 100
r 2.002089 4 1 tcp 1040 ------- 0 2.0 1.0 30 75
h 2.002089 1 4 ack 40 ------- 0 1.0 2.0 30 101
+ 2.1 0 4 tcp 1040 ------- 0 0.0 3.0 15 76
- 2.1 0 4 tcp 1040 ------- 0 0.0 3.0 15 76
+ 2.1 0 4 tcp 1040 ------- 0 0.0 3.0 16 77
+ 2.1 0 4 tcp 1040 ------- 0 0.0 3.0 17 78
+ 2.1 0 4 tcp 1040 ------- 0 0.0 3.0 18 79
+ 2.1 0 4 tcp 1040 ------- 0 0.0 3.0 19 80
+ 2.1 0 4 tcp 1040 ------- 0 0.0 3.0 20 81
+ 2.1 0 4 tcp 1040 ------- 0 0.0 3.0 21 82
+ 2.1 0 4 tcp 1040 ------- 0 0.0 3.0 22 83
+ 2.1 0 4 tcp 1040 ------- 0 0.0 3.0 23 84
+ 2.1 0 4 tcp 1040 ------- 0 0.0 3.0 24 85
- 2.100107 0 4 tcp 1040 ------- 0 0.0 3.0 16 77
- 2.100213 0 4 tcp 1040 ------- 0 0.0 3.0 17 78
- 2.10032 0 4 tcp 1040 ------- 0 0.0 3.0 18 79
- 2.100426 0 4 tcp 1040 ------- 0 0.0 3.0 19 80
+ 2.10049 1 4 ack 40 ------- 0 1.0 2.0 15 86
- 2.10049 1 4 ack 40 ------- 0 1.0 2.0 15 86
- 2.100533 0 4 tcp 1040 ------- 0 0.0 3.0 20 81
+ 2.100596 1 4 ack 40 ------- 0 1.0 2.0 16 87
- 2.100664 0 4 tcp 1040 ------- 0 0.0 3.0 21 82
+ 2.100703 1 4 ack 40 ------- 0 1.0 2.0 17 88
- 2.100807 0 4 tcp 1040 ------- 0 0.0 3.0 22 83
+ 2.100809 1 4 ack 40 ------- 0 1.0 2.0 18 89
+ 2.100916 1 4 ack 40 ------- 0 1.0 2.0 19 90
- 2.100923 0 4 tcp 1040 ------- 0 0.0 3.0 23 84
+ 2.101023 1 4 ack 40 ------- 0 1.0 2.0 20 91
- 2.10103 0 4 tcp 1040 ------- 0 0.0 3.0 24 85
+ 2.101129 1 4 ack 40 ------- 0 1.0 2.0 21 92
+ 2.101236 1 4 ack 40 ------- 0 1.0 2.0 22 93
+ 2.101342 1 4 ack 40 ------- 0 1.0 2.0 23 94
- 2.101344 1 4 ack 40 ------- 0 1.0 2.0 16 87
- 2.101351 1 4 ack 40 ------- 0 1.0 2.0 17 88
- 2.101359 1 4 ack 40 ------- 0 1.0 2.0 18 89
- 2.101367 1 4 ack 40 ------- 0 1.0 2.0 19 90
- 2.101374 1 4 ack 40 ------- 0 1.0 2.0 20 91
- 2.101382 1 4 ack 40 ------- 0 1.0 2.0 21 92
- 2.101389 1 4 ack 40 ------- 0 1.0 2.0 22 93
- 2.101397 1 4 ack 40 ------- 0 1.0 2.0 23 94
+ 2.101449 1 4 ack 40 ------- 0 1.0 2.0 24 95
- 2.101449 1 4 ack 40 ------- 0 1.0 2.0 24 95
+ 2.101556 1 4 ack 40 ------- 0 1.0 2.0 25 96
- 2.101556 1 4 ack 40 ------- 0 1.0 2.0 25 96
+ 2.101662 1 4 ack 40 ------- 0 1.0 2.0 26 97
- 2.101662 1 4 ack 40 ------- 0 1.0 2.0 26 97
+ 2.101769 1 4 ack 40 ------- 0 1.0 2.0 27 98
- 2.101769 1 4 ack 40 ------- 0 1.0 2.0 27 98
+ 2.101875 1 4 ack 40 ------- 0 1.0 2.0 28 99
- 2.101875 1 4 ack 40 ------- 0 1.0 2.0 28 99
+ 2.101982 1 4 ack 40 ------- 0 1.0 2.0 29 100
- 2.101982 1 4 ack 40 ------- 0 1.0 2.0 29 100
+ 2.102089 1 4 ack 40 ------- 0 1.0 2.0 30 101
- 2.102089 1 4 ack 40 ------- 0 1.0 2.0 30 101
r 2.200109 4 3 tcp 1040 ------- 0 0.0 3.0 15 76
h 2.200109 3 4 ack 40 ------- 0 3.0 0.0 15 102
r 2.200216 4 3 tcp 1040 ------- 0 0.0 3.0 16 77
h 2.200216 3 4 ack 40 ------- 0 3.0 0.0 16 103
r 2.200323 4 3 tcp 1040 ------- 0 0.0 3.0 17 78
h 2.200323 3 4 ack 40 ------- 0 3.0 0.0 17 104
r 2.200429 4 3 tcp 1040 ------- 0 0.0 3.0 18 79
h 2.200429 3 4 ack 40 ------- 0 3.0 0.0 18 105
r 2.200536 4 3 tcp 1040 ------- 0 0.0 3.0 19 80
h 2.200536 3 4 ack 40 ------- 0 3.0 0.0 19 106
r 2.200666 4 3 tcp 1040 ------- 0 0.0 3.0 20 81
h 2.200666 3 4 ack 40 ------- 0 3.0 0.0 20 107
r 2.20081 4 3 tcp 1040 ------- 0 0.0 3.0 21 82
h 2.20081 3 4 ack 40 ------- 0 3.0 0.0 21 108
r 2.200926 4 3 tcp 1040 ------- 0 0.0 3.0 22 83
h 2.200926 3 4 ack 40 ------- 0 3.0 0.0 22 109
r 2.201033 4 3 tcp 1040 ------- 0 0.0 3.0 23 84
h 2.201033 3 4 ack 40 ------- 0 3.0 0.0 23 110
r 2.201149 4 3 tcp 1040 ------- 0 0.0 3.0 24 85
h 2.201149 3 4 ack 40 ------- 0 3.0 0.0 24 111
r 2.201347 4 2 ack 40 ------- 0 1.0 2.0 15 86
r 2.201354 4 2 ack 40 ------- 0 1.0 2.0 16 87
r 2.201362 4 2 ack 40 ------- 0 1.0 2.0 17 88
r 2.201369 4 2 ack 40 ------- 0 1.0 2.0 18 89
r 2.201377 4 2 ack 40 ------- 0 1.0 2.0 19 90
r 2.201385 4 2 ack 40 ------- 0 1.0 2.0 20 91
r 2.201392 4 2 ack 40 ------- 0 1.0 2.0 21 92
r 2.2014 4 2 ack 40 ------- 0 1.0 2.0 22 93
r 2.201407 4 2 ack 40 ------- 0 1.0 2.0 23 94
r 2.201459 4 2 ack 40 ------- 0 1.0 2.0 24 95
r 2.201566 4 2 ack 40 ------- 0 1.0 2.0 25 96
r 2.201673 4 2 ack 40 ------- 0 1.0 2.0 26 97
r 2.201779 4 2 ack 40 ------- 0 1.0 2.0 27 98
r 2.201886 4 2 ack 40 ------- 0 1.0 2.0 28 99
r 2.201992 4 2 ack 40 ------- 0 1.0 2.0 29 100
r 2.202099 4 2 ack 40 ------- 0 1.0 2.0 30 101
+ 2.300109 3 4 ack 40 ------- 0 3.0 0.0 15 102
- 2.300109 3 4 ack 40 ------- 0 3.0 0.0 15 102
+ 2.300216 3 4 ack 40 ------- 0 3.0 0.0 16 103
- 2.300216 3 4 ack 40 ------- 0 3.0 0.0 16 103
+ 2.300323 3 4 ack 40 ------- 0 3.0 0.0 17 104
- 2.300323 3 4 ack 40 ------- 0 3.0 0.0 17 104
+ 2.300429 3 4 ack 40 ------- 0 3.0 0.0 18 105
- 2.300429 3 4 ack 40 ------- 0 3.0 0.0 18 105
+ 2.300536 3 4 ack 40 ------- 0 3.0 0.0 19 106
- 2.300536 3 4 ack 40 ------- 0 3.0 0.0 19 106
+ 2.300666 3 4 ack 40 ------- 0 3.0 0.0 20 107
- 2.300666 3 4 ack 40 ------- 0 3.0 0.0 20 107
+ 2.30081 3 4 ack 40 ------- 0 3.0 0.0 21 108
- 2.30081 3 4 ack 40 ------- 0 3.0 0.0 21 108
+ 2.300926 3 4 ack 40 ------- 0 3.0 0.0 22 109
- 2.300926 3 4 ack 40 ------- 0 3.0 0.0 22 109
+ 2.301033 3 4 ack 40 ------- 0 3.0 0.0 23 110
- 2.301033 3 4 ack 40 ------- 0 3.0 0.0 23 110
+ 2.301149 3 4 ack 40 ------- 0 3.0 0.0 24 111
- 2.301149 3 4 ack 40 ------- 0 3.0 0.0 24 111
r 2.40012 4 0 ack 40 ------- 0 3.0 0.0 15 102
h 2.40012 0 4 tcp 1040 ------- 0 0.0 3.0 25 112
r 2.400226 4 0 ack 40 ------- 0 3.0 0.0 16 103
h 2.400226 0 4 tcp 1040 ------- 0 0.0 3.0 26 113
r 2.400333 4 0 ack 40 ------- 0 3.0 0.0 17 104
h 2.400333 0 4 tcp 1040 ------- 0 0.0 3.0 27 114
r 2.40044 4 0 ack 40 ------- 0 3.0 0.0 18 105
h 2.40044 0 4 tcp 1040 ------- 0 0.0 3.0 28 115
r 2.400546 4 0 ack 40 ------- 0 3.0 0.0 19 106
h 2.400546 0 4 tcp 1040 ------- 0 0.0 3.0 29 116
r 2.400677 4 0 ack 40 ------- 0 3.0 0.0 20 107
h 2.400677 0 4 tcp 1040 ------- 0 0.0 3.0 30 117
r 2.40082 4 0 ack 40 ------- 0 3.0 0.0 21 108
h 2.40082 0 4 tcp 1040 ------- 0 0.0 3.0 31 118
r 2.400936 4 0 ack 40 ------- 0 3.0 0.0 22 109
h 2.400936 0 4 tcp 1040 ------- 0 0.0 3.0 32 119
r 2.401043 4 0 ack 40 ------- 0 3.0 0.0 23 110
h 2.401043 0 4 tcp 1040 ------- 0 0.0 3.0 33 120
r 2.401159 4 0 ack 40 ------- 0 3.0 0.0 24 111
h 2.401159 0 4 tcp 1040 ------- 0 0.0 3.0 34 121
h 2.5 2 4 tcp 1040 ------- 0 2.0 1.0 31 122
h 2.5 2 4 tcp 1040 ------- 0 2.0 1.0 32 123
h 2.5 2 4 tcp 1040 ------- 0 2.0 1.0 33 124
h 2.5 2 4 tcp 1040 ------- 0 2.0 1.0 34 125
h 2.5 2 4 tcp 1040 ------- 0 2.0 1.0 35 126
h 2.5 2 4 tcp 1040 ------- 0 2.0 1.0 36 127
h 2.5 2 4 tcp 1040 ------- 0 2.0 1.0 37 128
h 2.5 2 4 tcp 1040 ------- 0 2.0 1.0 38 129
h 2.5 2 4 tcp 1040 ------- 0 2.0 1.0 39 130
h 2.5 2 4 tcp 1040 ------- 0 2.0 1.0 40 131
h 2.5 2 4 tcp 1040 ------- 0 2.0 1.0 41 132
h 2.5 2 4 tcp 1040 ------- 0 2.0 1.0 42 133
h 2.5 2 4 tcp 1040 ------- 0 2.0 1.0 43 134
h 2.5 2 4 tcp 1040 ------- 0 2.0 1.0 44 135
h 2.5 2 4 tcp 1040 ------- 0 2.0 1.0 45 136
h 2.5 2 4 tcp 1040 ------- 0 2.0 1.0 46 137
h 2.5 2 4 tcp 1040 ------- 0 2.0 1.0 47 138
h 2.5 2 4 tcp 1040 ------- 0 2.0 1.0 48 139
h 2.5 2 4 tcp 1040 ------- 0 2.0 1.0 49 140
h 2.5 2 4 tcp 1040 ------- 0 2.0 1.0 50 141
+ 2.50012 0 4 tcp 1040 ------- 0 0.0 3.0 25 112
- 2.50012 0 4 tcp 1040 ------- 0 0.0 3.0 25 112
+ 2.500226 0 4 tcp 1040 ------- 0 0.0 3.0 26 113
- 2.500226 0 4 tcp 1040 ------- 0 0.0 3.0 26 113
+ 2.500333 0 4 tcp 1040 ------- 0 0.0 3.0 27 114
- 2.500333 0 4 tcp 1040 ------- 0 0.0 3.0 27 114
+ 2.50044 0 4 tcp 1040 ------- 0 0.0 3.0 28 115
- 2.50044 0 4 tcp 1040 ------- 0 0.0 3.0 28 115
+ 2.500546 0 4 tcp 1040 ------- 0 0.0 3.0 29 116
- 2.500546 0 4 tcp 1040 ------- 0 0.0 3.0 29 116
+ 2.500677 0 4 tcp 1040 ------- 0 0.0 3.0 30 117
- 2.500677 0 4 tcp 1040 ------- 0 0.0 3.0 30 117
+ 2.50082 0 4 tcp 1040 ------- 0 0.0 3.0 31 118
- 2.50082 0 4 tcp 1040 ------- 0 0.0 3.0 31 118
+ 2.500936 0 4 tcp 1040 ------- 0 0.0 3.0 32 119
- 2.500936 0 4 tcp 1040 ------- 0 0.0 3.0 32 119
+ 2.501043 0 4 tcp 1040 ------- 0 0.0 3.0 33 120
- 2.501043 0 4 tcp 1040 ------- 0 0.0 3.0 33 120
+ 2.501159 0 4 tcp 1040 ------- 0 0.0 3.0 34 121
- 2.501159 0 4 tcp 1040 ------- 0 0.0 3.0 34 121
+ 2.6 2 4 tcp 1040 ------- 0 2.0 1.0 31 122
- 2.6 2 4 tcp 1040 ------- 0 2.0 1.0 31 122
+ 2.6 2 4 tcp 1040 ------- 0 2.0 1.0 32 123
+ 2.6 2 4 tcp 1040 ------- 0 2.0 1.0 33 124
+ 2.6 2 4 tcp 1040 ------- 0 2.0 1.0 34 125
+ 2.6 2 4 tcp 1040 ------- 0 2.0 1.0 35 126
+ 2.6 2 4 tcp 1040 ------- 0 2.0 1.0 36 127
+ 2.6 2 4 tcp 1040 ------- 0 2.0 1.0 37 128
+ 2.6 2 4 tcp 1040 ------- 0 2.0 1.0 38 129
+ 2.6 2 4 tcp 1040 ------- 0 2.0 1.0 39 130
+ 2.6 2 4 tcp 1040 ------- 0 2.0 1.0 40 131
+ 2.6 2 4 tcp 1040 ------- 0 2.0 1.0 41 132
+ 2.6 2 4 tcp 1040 ------- 0 2.0 1.0 42 133
+ 2.6 2 4 tcp 1040 ------- 0 2.0 1.0 43 134
+ 2.6 2 4 tcp 1040 ------- 0 2.0 1.0 44 135
+ 2.6 2 4 tcp 1040 ------- 0 2.0 1.0 45 136
+ 2.6 2 4 tcp 1040 ------- 0 2.0 1.0 46 137
+ 2.6 2 4 tcp 1040 ------- 0 2.0 1.0 47 138
+ 2.6 2 4 tcp 1040 ------- 0 2.0 1.0 48 139
+ 2.6 2 4 tcp 1040 ------- 0 2.0 1.0 49 140
+ 2.6 2 4 tcp 1040 ------- 0 2.0 1.0 50 141
- 2.600107 2 4 tcp 1040 ------- 0 2.0 1.0 32 123
- 2.600213 2 4 tcp 1040 ------- 0 2.0 1.0 33 124
r 2.600229 4 3 tcp 1040 ------- 0 0.0 3.0 25 112
h 2.600229 3 4 ack 40 ------- 0 3.0 0.0 25 142
- 2.60032 2 4 tcp 1040 ------- 0 2.0 1.0 34 125
r 2.600336 4 3 tcp 1040 ------- 0 0.0 3.0 26 113
h 2.600336 3 4 ack 40 ------- 0 3.0 0.0 26 143
- 2.600426 2 4 tcp 1040 ------- 0 2.0 1.0 35 126
r 2.600442 4 3 tcp 1040 ------- 0 0.0 3.0 27 114
h 2.600442 3 4 ack 40 ------- 0 3.0 0.0 27 144
- 2.600533 2 4 tcp 1040 ------- 0 2.0 1.0 36 127
r 2.600549 4 3 tcp 1040 ------- 0 0.0 3.0 28 115
h 2.600549 3 4 ack 40 ------- 0 3.0 0.0 28 145
- 2.60064 2 4 tcp 1040 ------- 0 2.0 1.0 37 128
r 2.600656 4 3 tcp 1040 ------- 0 0.0 3.0 29 116
h 2.600656 3 4 ack 40 ------- 0 3.0 0.0 29 146
- 2.600746 2 4 tcp 1040 ------- 0 2.0 1.0 38 129
r 2.600786 4 3 tcp 1040 ------- 0 0.0 3.0 30 117
h 2.600786 3 4 ack 40 ------- 0 3.0 0.0 30 147
- 2.600853 2 4 tcp 1040 ------- 0 2.0 1.0 39 130
r 2.60093 4 3 tcp 1040 ------- 0 0.0 3.0 31 118
h 2.60093 3 4 ack 40 ------- 0 3.0 0.0 31 148
- 2.600959 2 4 tcp 1040 ------- 0 2.0 1.0 40 131
r 2.601046 4 3 tcp 1040 ------- 0 0.0 3.0 32 119
h 2.601046 3 4 ack 40 ------- 0 3.0 0.0 32 149
- 2.601066 2 4 tcp 1040 ------- 0 2.0 1.0 41 132
r 2.601152 4 3 tcp 1040 ------- 0 0.0 3.0 33 120
h 2.601152 3 4 ack 40 ------- 0 3.0 0.0 33 150
- 2.601173 2 4 tcp 1040 ------- 0 2.0 1.0 42 133
r 2.601269 4 3 tcp 1040 ------- 0 0.0 3.0 34 121
h 2.601269 3 4 ack 40 ------- 0 3.0 0.0 34 151
- 2.601279 2 4 tcp 1040 ------- 0 2.0 1.0 43 134
- 2.601386 2 4 tcp 1040 ------- 0 2.0 1.0 44 135
- 2.601492 2 4 tcp 1040 ------- 0 2.0 1.0 45 136
- 2.601599 2 4 tcp 1040 ------- 0 2.0 1.0 46 137
- 2.601706 2 4 tcp 1040 ------- 0 2.0 1.0 47 138
- 2.601812 2 4 tcp 1040 ------- 0 2.0 1.0 48 139
- 2.601919 2 4 tcp 1040 ------- 0 2.0 1.0 49 140
- 2.602025 2 4 tcp 1040 ------- 0 2.0 1.0 50 141
r 2.700109 4 1 tcp 1040 ------- 0 2.0 1.0 31 122
h 2.700109 1 4 ack 40 ------- 0 1.0 2.0 31 152
r 2.700216 4 1 tcp 1040 ------- 0 2.0 1.0 32 123
h 2.700216 1 4 ack 40 ------- 0 1.0 2.0 32 153
+ 2.700229 3 4 ack 40 ------- 0 3.0 0.0 25 142
- 2.700229 3 4 ack 40 ------- 0 3.0 0.0 25 142
r 2.700323 4 1 tcp 1040 ------- 0 2.0 1.0 33 124
h 2.700323 1 4 ack 40 ------- 0 1.0 2.0 33 154
+ 2.700336 3 4 ack 40 ------- 0 3.0 0.0 26 143
- 2.700336 3 4 ack 40 ------- 0 3.0 0.0 26 143
r 2.700429 4 1 tcp 1040 ------- 0 2.0 1.0 34 125
h 2.700429 1 4 ack 40 ------- 0 1.0 2.0 34 155
+ 2.700442 3 4 ack 40 ------- 0 3.0 0.0 27 144
- 2.700442 3 4 ack 40 ------- 0 3.0 0.0 27 144
r 2.700536 4 1 tcp 1040 ------- 0 2.0 1.0 35 126
h 2.700536 1 4 ack 40 ------- 0 1.0 2.0 35 156
+ 2.700549 3 4 ack 40 ------- 0 3.0 0.0 28 145
- 2.700549 3 4 ack 40 ------- 0 3.0 0.0 28 145
r 2.700642 4 1 tcp 1040 ------- 0 2.0 1.0 36 127
h 2.700642 1 4 ack 40 ------- 0 1.0 2.0 36 157
+ 2.700656 3 4 ack 40 ------- 0 3.0 0.0 29 146
- 2.700656 3 4 ack 40 ------- 0 3.0 0.0 29 146
r 2.700749 4 1 tcp 1040 ------- 0 2.0 1.0 37 128
h 2.700749 1 4 ack 40 ------- 0 1.0 2.0 37 158
+ 2.700786 3 4 ack 40 ------- 0 3.0 0.0 30 147
- 2.700786 3 4 ack 40 ------- 0 3.0 0.0 30 147
r 2.700856 4 1 tcp 1040 ------- 0 2.0 1.0 38 129
h 2.700856 1 4 ack 40 ------- 0 1.0 2.0 38 159
+ 2.70093 3 4 ack 40 ------- 0 3.0 0.0 31 148
- 2.70093 3 4 ack 40 ------- 0 3.0 0.0 31 148
r 2.700962 4 1 tcp 1040 ------- 0 2.0 1.0 39 130
h 2.700962 1 4 ack 40 ------- 0 1.0 2.0 39 160
+ 2.701046 3 4 ack 40 ------- 0 3.0 0.0 32 149
- 2.701046 3 4 ack 40 ------- 0 3.0 0.0 32 149
r 2.701069 4 1 tcp 1040 ------- 0 2.0 1.0 40 131
h 2.701069 1 4 ack 40 ------- 0 1.0 2.0 40 161
+ 2.701152 3 4 ack 40 ------- 0 3.0 0.0 33 150
- 2.701152 3 4 ack 40 ------- 0 3.0 0.0 33 150
r 2.701175 4 1 tcp 1040 ------- 0 2.0 1.0 41 132
h 2.701175 1 4 ack 40 ------- 0 1.0 2.0 41 162
+ 2.701269 3 4 ack 40 ------- 0 3.0 0.0 34 151
- 2.701269 3 4 ack 40 ------- 0 3.0 0.0 34 151
r 2.701282 4 1 tcp 1040 ------- 0 2.0 1.0 42 133
h 2.701282 1 4 ack 40 ------- 0 1.0 2.0 42 163
r 2.701389 4 1 tcp 1040 ------- 0 2.0 1.0 43 134
h 2.701389 1 4 ack 40 ------- 0 1.0 2.0 43 164
r 2.701495 4 1 tcp 1040 ------- 0 2.0 1.0 44 135
h 2.701495 1 4 ack 40 ------- 0 1.0 2.0 44 165
r 2.701602 4 1 tcp 1040 ------- 0 2.0 1.0 45 136
h 2.701602 1 4 ack 40 ------- 0 1.0 2.0 45 166
r 2.701708 4 1 tcp 1040 ------- 0 2.0 1.0 46 137
h 2.701708 1 4 ack 40 ------- 0 1.0 2.0 46 167
r 2.701815 4 1 tcp 1040 ------- 0 2.0 1.0 47 138
h 2.701815 1 4 ack 40 ------- 0 1.0 2.0 47 168
r 2.701922 4 1 tcp 1040 ------- 0 2.0 1.0 48 139
h 2.701922 1 4 ack 40 ------- 0 1.0 2.0 48 169
r 2.702028 4 1 tcp 1040 ------- 0 2.0 1.0 49 140
h 2.702028 1 4 ack 40 ------- 0 1.0 2.0 49 170
r 2.702135 4 1 tcp 1040 ------- 0 2.0 1.0 50 141
h 2.702135 1 4 ack 40 ------- 0 1.0 2.0 50 171
+ 2.800109 1 4 ack 40 ------- 0 1.0 2.0 31 152
- 2.800109 1 4 ack 40 ------- 0 1.0 2.0 31 152
+ 2.800216 1 4 ack 40 ------- 0 1.0 2.0 32 153
- 2.800216 1 4 ack 40 ------- 0 1.0 2.0 32 153
r 2.80024 4 0 ack 40 ------- 0 3.0 0.0 25 142
h 2.80024 0 4 tcp 1040 ------- 0 0.0 3.0 35 172
+ 2.800323 1 4 ack 40 ------- 0 1.0 2.0 33 154
- 2.800323 1 4 ack 40 ------- 0 1.0 2.0 33 154
r 2.800346 4 0 ack 40 ------- 0 3.0 0.0 26 143
h 2.800346 0 4 tcp 1040 ------- 0 0.0 3.0 36 173
+ 2.800429 1 4 ack 40 ------- 0 1.0 2.0 34 155
- 2.800429 1 4 ack 40 ------- 0 1.0 2.0 34 155
r 2.800453 4 0 ack 40 ------- 0 3.0 0.0 27 144
h 2.800453 0 4 tcp 1040 ------- 0 0.0 3.0 37 174
+ 2.800536 1 4 ack 40 ------- 0 1.0 2.0 35 156
- 2.800536 1 4 ack 40 ------- 0 1.0 2.0 35 156
r 2.800559 4 0 ack 40 ------- 0 3.0 0.0 28 145
h 2.800559 0 4 tcp 1040 ------- 0 0.0 3.0 38 175
+ 2.800642 1 4 ack 40 ------- 0 1.0 2.0 36 157
- 2.800642 1 4 ack 40 ------- 0 1.0 2.0 36 157
r 2.800666 4 0 ack 40 ------- 0 3.0 0.0 29 146
h 2.800666 0 4 tcp 1040 ------- 0 0.0 3.0 39 176
+ 2.800749 1 4 ack 40 ------- 0 1.0 2.0 37 158
- 2.800749 1 4 ack 40 ------- 0 1.0 2.0 37 158
r 2.800797 4 0 ack 40 ------- 0 3.0 0.0 30 147
h 2.800797 0 4 tcp 1040 ------- 0 0.0 3.0 40 177
+ 2.800856 1 4 ack 40 ------- 0 1.0 2.0 38 159
- 2.800856 1 4 ack 40 ------- 0 1.0 2.0 38 159
r 2.80094 4 0 ack 40 ------- 0 3.0 0.0 31 148