V -t * -v 1.0a5 -a 0
A -t * -n 1 -p 0 -o 0x7fffffff -c 30 -a 1
A -t * -h 1 -m 1073741823 -s 0
n -t * -a 0 -s 0 -S UP -v circle -c black -i black
n -t * -a 1 -s 1 -S UP -v circle -c black -i black
n -t * -a 2 -s 2 -S UP -v circle -c black -i black
n -t * -a 3 -s 3 -S UP -v circle -c black -i black
X -t * -n 4 -r 10MB -D 100ms -o left
L -t * -s 4 -d 0 -o up
L -t * -s 4 -d 1 -o down
L -t * -s 4 -d 2 -o up
L -t * -s 4 -d 3 -o down
h -t 0.1 -s 0 -d 4 -p tcp -e 40 -c 0 -i 0 -a 0 -x {0.0 3.0 0 ------- null}
h -t 0.2 -s 2 -d 4 -p tcp -e 40 -c 0 -i 1 -a 0 -x {2.0 1.0 0 ------- null}
+ -t 0.2 -s 0 -d 4 -p tcp -e 40 -c 0 -i 0 -a 0 -x {0.0 3.0 0 ------- null}
- -t 0.2 -s 0 -d 4 -p tcp -e 40 -c 0 -i 0 -a 0 -x {0.0 3.0 0 ------- null}
h -t 0.2 -s 0 -d 4 -p tcp -e 40 -c 0 -i 0 -a 0 -x {0.0 3.0 -1 ------- null}
+ -t 0.3 -s 2 -d 4 -p tcp -e 40 -c 0 -i 1 -a 0 -x {2.0 1.0 0 ------- null}
- -t 0.3 -s 2 -d 4 -p tcp -e 40 -c 0 -i 1 -a 0 -x {2.0 1.0 0 ------- null}
h -t 0.3 -s 2 -d 4 -p tcp -e 40 -c 0 -i 1 -a 0 -x {2.0 1.0 -1 ------- null}
r -t 0.3000104 -s 4 -d 3 -p tcp -e 40 -c 0 -i 0 -a 0 -x {0.0 3.0 0 ------- null}
h -t 0.3000104 -s 3 -d 4 -p ack -e 40 -c 0 -i 2 -a 0 -x {3.0 0.0 0 ------- null}
+ -t 0.4000104 -s 3 -d 4 -p ack -e 40 -c 0 -i 2 -a 0 -x {3.0 0.0 0 ------- null}
- -t 0.4000104 -s 3 -d 4 -p ack -e 40 -c 0 -i 2 -a 0 -x {3.0 0.0 0 ------- null}
h -t 0.4000104 -s 3 -d 4 -p ack -e 40 -c 0 -i 2 -a 0 -x {3.0 0.0 -1 ------- null}
r -t 0.4000104 -s 4 -d 1 -p tcp -e 40 -c 0 -i 1 -a 0 -x {2.0 1.0 0 ------- null}
h -t 0.4000104 -s 1 -d 4 -p ack -e 40 -c 0 -i 3 -a 0 -x {1.0 2.0 0 ------- null}
+ -t 0.5000104 -s 1 -d 4 -p ack -e 40 -c 0 -i 3 -a 0 -x {1.0 2.0 0 ------- null}
- -t 0.5000104 -s 1 -d 4 -p ack -e 40 -c 0 -i 3 -a 0 -x {1.0 2.0 0 ------- null}
h -t 0.5000104 -s 1 -d 4 -p ack -e 40 -c 0 -i 3 -a 0 -x {1.0 2.0 -1 ------- null}
r -t 0.5000208 -s 4 -d 0 -p ack -e 40 -c 0 -i 2 -a 0 -x {3.0 0.0 0 ------- null}
h -t 0.5000208 -s 0 -d 4 -p tcp -e 1040 -c 0 -i 4 -a 0 -x {0.0 3.0 1 ------- null}
h -t 0.5000208 -s 0 -d 4 -p tcp -e 1040 -c 0 -i 5 -a 0 -x {0.0 3.0 2 ------- null}
+ -t 0.6000208 -s 0 -d 4 -p tcp -e 1040 -c 0 -i 4 -a 0 -x {0.0 3.0 1 ------- null}
- -t 0.6000208 -s 0 -d 4 -p tcp -e 1040 -c 0 -i 4 -a 0 -x {0.0 3.0 1 ------- null}
h -t 0.6000208 -s 0 -d 4 -p tcp -e 1040 -c 0 -i 4 -a 0 -x {0.0 3.0 -1 ------- null}
+ -t 0.6000208 -s 0 -d 4 -p tcp -e 1040 -c 0 -i 5 -a 0 -x {0.0 3.0 2 ------- null}
r -t 0.6000208 -s 4 -d 2 -p ack -e 40 -c 0 -i 3 -a 0 -x {1.0 2.0 0 ------- null}
h -t 0.6000208 -s 2 -d 4 -p tcp -e 1040 -c 0 -i 6 -a 0 -x {2.0 1.0 1 ------- null}
h -t 0.6000208 -s 2 -d 4 -p tcp -e 1040 -c 0 -i 7 -a 0 -x {2.0 1.0 2 ------- null}
- -t 0.6001274 -s 0 -d 4 -p tcp -e 1040 -c 0 -i 5 -a 0 -x {0.0 3.0 2 ------- null}
h -t 0.6001274 -s 0 -d 4 -p tcp -e 1040 -c 0 -i 5 -a 0 -x {0.0 3.0 -1 ------- null}
+ -t 0.7000208 -s 2 -d 4 -p tcp -e 1040 -c 0 -i 6 -a 0 -x {2.0 1.0 1 ------- null}
- -t 0.7000208 -s 2 -d 4 -p tcp -e 1040 -c 0 -i 6 -a 0 -x {2.0 1.0 1 ------- null}
h -t 0.7000208 -s 2 -d 4 -p tcp -e 1040 -c 0 -i 6 -a 0 -x {2.0 1.0 -1 ------- null}
+ -t 0.7000208 -s 2 -d 4 -p tcp -e 1040 -c 0 -i 7 -a 0 -x {2.0 1.0 2 ------- null}
- -t 0.7001274 -s 2 -d 4 -p tcp -e 1040 -c 0 -i 7 -a 0 -x {2.0 1.0 2 ------- null}
h -t 0.7001274 -s 2 -d 4 -p tcp -e 1040 -c 0 -i 7 -a 0 -x {2.0 1.0 -1 ------- null}
r -t 0.7001302 -s 4 -d 3 -p tcp -e 1040 -c 0 -i 4 -a 0 -x {0.0 3.0 1 ------- null}
h -t 0.7001302 -s 3 -d 4 -p ack -e 40 -c 0 -i 8 -a 0 -x {3.0 0.0 1 ------- null}
r -t 0.7002368 -s 4 -d 3 -p tcp -e 1040 -c 0 -i 5 -a 0 -x {0.0 3.0 2 ------- null}
h -t 0.7002368 -s 3 -d 4 -p ack -e 40 -c 0 -i 9 -a 0 -x {3.0 0.0 2 ------- null}
+ -t 0.8001302 -s 3 -d 4 -p ack -e 40 -c 0 -i 8 -a 0 -x {3.0 0.0 1 ------- null}
- -t 0.8001302 -s 3 -d 4 -p ack -e 40 -c 0 -i 8 -a 0 -x {3.0 0.0 1 ------- null}
h -t 0.8001302 -s 3 -d 4 -p ack -e 40 -c 0 -i 8 -a 0 -x {3.0 0.0 -1 ------- null}
r -t 0.8001302 -s 4 -d 1 -p tcp -e 1040 -c 0 -i 6 -a 0 -x {2.0 1.0 1 ------- null}
h -t 0.8001302 -s 1 -d 4 -p ack -e 40 -c 0 -i 10 -a 0 -x {1.0 2.0 1 ------- null}
+ -t 0.8002368 -s 3 -d 4 -p ack -e 40 -c 0 -i 9 -a 0 -x {3.0 0.0 2 ------- null}
- -t 0.8002368 -s 3 -d 4 -p ack -e 40 -c 0 -i 9 -a 0 -x {3.0 0.0 2 ------- null}
h -t 0.8002368 -s 3 -d 4 -p ack -e 40 -c 0 -i 9 -a 0 -x {3.0 0.0 -1 ------- null}
r -t 0.8002368 -s 4 -d 1 -p tcp -e 1040 -c 0 -i 7 -a 0 -x {2.0 1.0 2 ------- null}
h -t 0.8002368 -s 1 -d 4 -p ack -e 40 -c 0 -i 11 -a 0 -x {1.0 2.0 2 ------- null}
+ -t 0.9001302 -s 1 -d 4 -p ack -e 40 -c 0 -i 10 -a 0 -x {1.0 2.0 1 ------- null}
- -t 0.9001302 -s 1 -d 4 -p ack -e 40 -c 0 -i 10 -a 0 -x {1.0 2.0 1 ------- null}
h -t 0.9001302 -s 1 -d 4 -p ack -e 40 -c 0 -i 10 -a 0 -x {1.0 2.0 -1 ------- null}
r -t 0.9001406 -s 4 -d 0 -p ack -e 40 -c 0 -i 8 -a 0 -x {3.0 0.0 1 ------- null}
h -t 0.9001406 -s 0 -d 4 -p tcp -e 1040 -c 0 -i 12 -a 0 -x {0.0 3.0 3 ------- null}
h -t 0.9001406 -s 0 -d 4 -p tcp -e 1040 -c 0 -i 13 -a 0 -x {0.0 3.0 4 ------- null}
+ -t 0.9002368 -s 1 -d 4 -p ack -e 40 -c 0 -i 11 -a 0 -x {1.0 2.0 2 ------- null}
- -t 0.9002368 -s 1 -d 4 -p ack -e 40 -c 0 -i 11 -a 0 -x {1.0 2.0 2 ------- null}
h -t 0.9002368 -s 1 -d 4 -p ack -e 40 -c 0 -i 11 -a 0 -x {1.0 2.0 -1 ------- null}
r -t 0.9002472 -s 4 -d 0 -p ack -e 40 -c 0 -i 9 -a 0 -x {3.0 0.0 2 ------- null}
h -t 0.9002472 -s 0 -d 4 -p tcp -e 1040 -c 0 -i 14 -a 0 -x {0.0 3.0 5 ------- null}
h -t 0.9002472 -s 0 -d 4 -p tcp -e 1040 -c 0 -i 15 -a 0 -x {0.0 3.0 6 ------- null}
+ -t 1.0001406 -s 0 -d 4 -p tcp -e 1040 -c 0 -i 12 -a 0 -x {0.0 3.0 3 ------- null}
- -t 1.0001406 -s 0 -d 4 -p tcp -e 1040 -c 0 -i 12 -a 0 -x {0.0 3.0 3 ------- null}
h -t 1.0001406 -s 0 -d 4 -p tcp -e 1040 -c 0 -i 12 -a 0 -x {0.0 3.0 -1 ------- null}
+ -t 1.0001406 -s 0 -d 4 -p tcp -e 1040 -c 0 -i 13 -a 0 -x {0.0 3.0 4 ------- null}
r -t 1.0001406 -s 4 -d 2 -p ack -e 40 -c 0 -i 10 -a 0 -x {1.0 2.0 1 ------- null}
h -t 1.0001406 -s 2 -d 4 -p tcp -e 1040 -c 0 -i 16 -a 0 -x {2.0 1.0 3 ------- null}
h -t 1.0001406 -s 2 -d 4 -p tcp -e 1040 -c 0 -i 17 -a 0 -x {2.0 1.0 4 ------- null}
+ -t 1.0002472 -s 0 -d 4 -p tcp -e 1040 -c 0 -i 14 -a 0 -x {0.0 3.0 5 ------- null}
+ -t 1.0002472 -s 0 -d 4 -p tcp -e 1040 -c 0 -i 15 -a 0 -x {0.0 3.0 6 ------- null}
r -t 1.0002472 -s 4 -d 2 -p ack -e 40 -c 0 -i 11 -a 0 -x {1.0 2.0 2 ------- null}
h -t 1.0002472 -s 2 -d 4 -p tcp -e 1040 -c 0 -i 18 -a 0 -x {2.0 1.0 5 ------- null}
h -t 1.0002472 -s 2 -d 4 -p tcp -e 1040 -c 0 -i 19 -a 0 -x {2.0 1.0 6 ------- null}
- -t 1.0002472 -s 0 -d 4 -p tcp -e 1040 -c 0 -i 13 -a 0 -x {0.0 3.0 4 ------- null}
h -t 1.0002472 -s 0 -d 4 -p tcp -e 1040 -c 0 -i 13 -a 0 -x {0.0 3.0 -1 ------- null}
- -t 1.0003538 -s 0 -d 4 -p tcp -e 1040 -c 0 -i 14 -a 0 -x {0.0 3.0 5 ------- null}
h -t 1.0003538 -s 0 -d 4 -p tcp -e 1040 -c 0 -i 14 -a 0 -x {0.0 3.0 -1 ------- null}
- -t 1.0004604 -s 0 -d 4 -p tcp -e 1040 -c 0 -i 15 -a 0 -x {0.0 3.0 6 ------- null}
h -t 1.0004604 -s 0 -d 4 -p tcp -e 1040 -c 0 -i 15 -a 0 -x {0.0 3.0 -1 ------- null}
+ -t 1.1001406 -s 2 -d 4 -p tcp -e 1040 -c 0 -i 16 -a 0 -x {2.0 1.0 3 ------- null}
- -t 1.1001406 -s 2 -d 4 -p tcp -e 1040 -c 0 -i 16 -a 0 -x {2.0 1.0 3 ------- null}
h -t 1.1001406 -s 2 -d 4 -p tcp -e 1040 -c 0 -i 16 -a 0 -x {2.0 1.0 -1 ------- null}
+ -t 1.1001406 -s 2 -d 4 -p tcp -e 1040 -c 0 -i 17 -a 0 -x {2.0 1.0 4 ------- null}
+ -t 1.1002472 -s 2 -d 4 -p tcp -e 1040 -c 0 -i 18 -a 0 -x {2.0 1.0 5 ------- null}
+ -t 1.1002472 -s 2 -d 4 -p tcp -e 1040 -c 0 -i 19 -a 0 -x {2.0 1.0 6 ------- null}
- -t 1.1002472 -s 2 -d 4 -p tcp -e 1040 -c 0 -i 17 -a 0 -x {2.0 1.0 4 ------- null}
h -t 1.1002472 -s 2 -d 4 -p tcp -e 1040 -c 0 -i 17 -a 0 -x {2.0 1.0 -1 ------- null}
r -t 1.10025 -s 4 -d 3 -p tcp -e 1040 -c 0 -i 12 -a 0 -x {0.0 3.0 3 ------- null}
h -t 1.10025 -s 3 -d 4 -p ack -e 40 -c 0 -i 20 -a 0 -x {3.0 0.0 3 ------- null}
- -t 1.1003538 -s 2 -d 4 -p tcp -e 1040 -c 0 -i 18 -a 0 -x {2.0 1.0 5 ------- null}
h -t 1.1003538 -s 2 -d 4 -p tcp -e 1040 -c 0 -i 18 -a 0 -x {2.0 1.0 -1 ------- null}
r -t 1.1003566 -s 4 -d 3 -p tcp -e 1040 -c 0 -i 13 -a 0 -x {0.0 3.0 4 ------- null}
h -t 1.1003566 -s 3 -d 4 -p ack -e 40 -c 0 -i 21 -a 0 -x {3.0 0.0 4 ------- null}
- -t 1.1004604 -s 2 -d 4 -p tcp -e 1040 -c 0 -i 19 -a 0 -x {2.0 1.0 6 ------- null}
h -t 1.1004604 -s 2 -d 4 -p tcp -e 1040 -c 0 -i 19 -a 0 -x {2.0 1.0 -1 ------- null}
r -t 1.1004632 -s 4 -d 3 -p tcp -e 1040 -c 0 -i 14 -a 0 -x {0.0 3.0 5 ------- null}
h -t 1.1004632 -s 3 -d 4 -p ack -e 40 -c 0 -i 22 -a 0 -x {3.0 0.0 5 ------- null}
r -t 1.1005698 -s 4 -d 3 -p tcp -e 1040 -c 0 -i 15 -a 0 -x {0.0 3.0 6 ------- null}
h -t 1.1005698 -s 3 -d 4 -p ack -e 40 -c 0 -i 23 -a 0 -x {3.0 0.0 6 ------- null}
+ -t 1.20025 -s 3 -d 4 -p ack -e 40 -c 0 -i 20 -a 0 -x {3.0 0.0 3 ------- null}
- -t 1.20025 -s 3 -d 4 -p ack -e 40 -c 0 -i 20 -a 0 -x {3.0 0.0 3 ------- null}
h -t 1.20025 -s 3 -d 4 -p ack -e 40 -c 0 -i 20 -a 0 -x {3.0 0.0 -1 ------- null}
r -t 1.20025 -s 4 -d 1 -p tcp -e 1040 -c 0 -i 16 -a 0 -x {2.0 1.0 3 ------- null}
h -t 1.20025 -s 1 -d 4 -p ack -e 40 -c 0 -i 24 -a 0 -x {1.0 2.0 3 ------- null}
+ -t 1.2003566 -s 3 -d 4 -p ack -e 40 -c 0 -i 21 -a 0 -x {3.0 0.0 4 ------- null}
- -t 1.2003566 -s 3 -d 4 -p ack -e 40 -c 0 -i 21 -a 0 -x {3.0 0.0 4 ------- null}
h -t 1.2003566 -s 3 -d 4 -p ack -e 40 -c 0 -i 21 -a 0 -x {3.0 0.0 -1 ------- null}
r -t 1.2003566 -s 4 -d 1 -p tcp -e 1040 -c 0 -i 17 -a 0 -x {2.0 1.0 4 ------- null}
h -t 1.2003566 -s 1 -d 4 -p ack -e 40 -c 0 -i 25 -a 0 -x {1.0 2.0 4 ------- null}
+ -t 1.2004632 -s 3 -d 4 -p ack -e 40 -c 0 -i 22 -a 0 -x {3.0 0.0 5 ------- null}
- -t 1.2004632 -s 3 -d 4 -p ack -e 40 -c 0 -i 22 -a 0 -x {3.0 0.0 5 ------- null}
h -t 1.2004632 -s 3 -d 4 -p ack -e 40 -c 0 -i 22 -a 0 -x {3.0 0.0 -1 ------- null}
r -t 1.2004632 -s 4 -d 1 -p tcp -e 1040 -c 0 -i 18 -a 0 -x {2.0 1.0 5 ------- null}
h -t 1.2004632 -s 1 -d 4 -p ack -e 40 -c 0 -i 26 -a 0 -x {1.0 2.0 5 ------- null}
+ -t 1.2005698 -s 3 -d 4 -p ack -e 40 -c 0 -i 23 -a 0 -x {3.0 0.0 6 ------- null}
- -t 1.2005698 -s 3 -d 4 -p ack -e 40 -c 0 -i 23 -a 0 -x {3.0 0.0 6 ------- null}
h -t 1.2005698 -s 3 -d 4 -p ack -e 40 -c 0 -i 23 -a 0 -x {3.0 0.0 -1 ------- null}
r -t 1.2005698 -s 4 -d 1 -p tcp -e 1040 -c 0 -i 19 -a 0 -x {2.0 1.0 6 ------- null}
h -t 1.2005698 -s 1 -d 4 -p ack -e 40 -c 0 -i 27 -a 0 -x {1.0 2.0 6 ------- null}
+ -t 1.30025 -s 1 -d 4 -p ack -e 40 -c 0 -i 24 -a 0 -x {1.0 2.0 3 ------- null}
- -t 1.30025 -s 1 -d 4 -p ack -e 40 -c 0 -i 24 -a 0 -x {1.0 2.0 3 ------- null}
h -t 1.30025 -s 1 -d 4 -p ack -e 40 -c 0 -i 24 -a 0 -x {1.0 2.0 -1 ------- null}
r -t 1.3002604 -s 4 -d 0 -p ack -e 40 -c 0 -i 20 -a 0 -x {3.0 0.0 3 ------- null}
h -t 1.3002604 -s 0 -d 4 -p tcp -e 1040 -c 0 -i 28 -a 0 -x {0.0 3.0 7 ------- null}
h -t 1.3002604 -s 0 -d 4 -p tcp -e 1040 -c 0 -i 29 -a 0 -x {0.0 3.0 8 ------- null}
+ -t 1.3003566 -s 1 -d 4 -p ack -e 40 -c 0 -i 25 -a 0 -x {1.0 2.0 4 ------- null}
- -t 1.3003566 -s 1 -d 4 -p ack -e 40 -c 0 -i 25 -a 0 -x {1.0 2.0 4 ------- null}
h -t 1.3003566 -s 1 -d 4 -p ack -e 40 -c 0 -i 25 -a 0 -x {1.0 2.0 -1 ------- null}
r -t 1.300367 -s 4 -d 0 -p ack -e 40 -c 0 -i 21 -a 0 -x {3.0 0.0 4 ------- null}
h -t 1.300367 -s 0 -d 4 -p tcp -e 1040 -c 0 -i 30 -a 0 -x {0.0 3.0 9 ------- null}
h -t 1.300367 -s 0 -d 4 -p tcp -e 1040 -c 0 -i 31 -a 0 -x {0.0 3.0 10 ------- null}
+ -t 1.3004632 -s 1 -d 4 -p ack -e 40 -c 0 -i 26 -a 0 -x {1.0 2.0 5 ------- null}
- -t 1.3004632 -s 1 -d 4 -p ack -e 40 -c 0 -i 26 -a 0 -x {1.0 2.0 5 ------- null}
h -t 1.3004632 -s 1 -d 4 -p ack -e 40 -c 0 -i 26 -a 0 -x {1.0 2.0 -1 ------- null}
r -t 1.3004736 -s 4 -d 0 -p ack -e 40 -c 0 -i 22 -a 0 -x {3.0 0.0 5 ------- null}
h -t 1.3004736 -s 0 -d 4 -p tcp -e 1040 -c 0 -i 32 -a 0 -x {0.0 3.0 11 ------- null}
h -t 1.3004736 -s 0 -d 4 -p tcp -e 1040 -c 0 -i 33 -a 0 -x {0.0 3.0 12 ------- null}
+ -t 1.3005698 -s 1 -d 4 -p ack -e 40 -c 0 -i 27 -a 0 -x {1.0 2.0 6 ------- null}
- -t 1.3005698 -s 1 -d 4 -p ack -e 40 -c 0 -i 27 -a 0 -x {1.0 2.0 6 ------- null}
h -t 1.3005698 -s 1 -d 4 -p ack -e 40 -c 0 -i 27 -a 0 -x {1.0 2.0 -1 ------- null}
r -t 1.3005802 -s 4 -d 0 -p ack -e 40 -c 0 -i 23 -a 0 -x {3.0 0.0 6 ------- null}
h -t 1.3005802 -s 0 -d 4 -p tcp -e 1040 -c 0 -i 34 -a 0 -x {0.0 3.0 13 ------- null}
h -t 1.3005802 -s 0 -d 4 -p tcp -e 1040 -c 0 -i 35 -a 0 -x {0.0 3.0 14 ------- null}
+ -t 1.4002604 -s 0 -d 4 -p tcp -e 1040 -c 0 -i 28 -a 0 -x {0.0 3.0 7 ------- null}
- -t 1.4002604 -s 0 -d 4 -p tcp -e 1040 -c 0 -i 28 -a 0 -x {0.0 3.0 7 ------- null}
h -t 1.4002604 -s 0 -d 4 -p tcp -e 1040 -c 0 -i 28 -a 0 -x {0.0 3.0 -1 ------- null}
+ -t 1.4002604 -s 0 -d 4 -p tcp -e 1040 -c 0 -i 29 -a 0 -x {0.0 3.0 8 ------- null}
r -t 1.4002604 -s 4 -d 2 -p ack -e 40 -c 0 -i 24 -a 0 -x {1.0 2.0 3 ------- null}
h -t 1.4002604 -s 2 -d 4 -p tcp -e 1040 -c 0 -i 36 -a 0 -x {2.0 1.0 7 ------- null}
h -t 1.4002604 -s 2 -d 4 -p tcp -e 1040 -c 0 -i 37 -a 0 -x {2.0 1.0 8 ------- null}
+ -t 1.400367 -s 0 -d 4 -p tcp -e 1040 -c 0 -i 30 -a 0 -x {0.0 3.0 9 ------- null}
+ -t 1.400367 -s 0 -d 4 -p tcp -e 1040 -c 0 -i 31 -a 0 -x {0.0 3.0 10 ------- null}
r -t 1.400367 -s 4 -d 2 -p ack -e 40 -c 0 -i 25 -a 0 -x {1.0 2.0 4 ------- null}
h -t 1.400367 -s 2 -d 4 -p tcp -e 1040 -c 0 -i 38 -a 0 -x {2.0 1.0 9 ------- null}
h -t 1.400367 -s 2 -d 4 -p tcp -e 1040 -c 0 -i 39 -a 0 -x {2.0 1.0 10 ------- null}
- -t 1.400367 -s 0 -d 4 -p tcp -e 1040 -c 0 -i 29 -a 0 -x {0.0 3.0 8 ------- null}
h -t 1.400367 -s 0 -d 4 -p tcp -e 1040 -c 0 -i 29 -a 0 -x {0.0 3.0 -1 ------- null}
+ -t 1.4004736 -s 0 -d 4 -p tcp -e 1040 -c 0 -i 32 -a 0 -x {0.0 3.0 11 ------- null}
+ -t 1.4004736 -s 0 -d 4 -p tcp -e 1040 -c 0 -i 33 -a 0 -x {0.0 3.0 12 ------- null}
r -t 1.4004736 -s 4 -d 2 -p ack -e 40 -c 0 -i 26 -a 0 -x {1.0 2.0 5 ------- null}
h -t 1.4004736 -s 2 -d 4 -p tcp -e 1040 -c 0 -i 40 -a 0 -x {2.0 1.0 11 ------- null}
h -t 1.4004736 -s 2 -d 4 -p tcp -e 1040 -c 0 -i 41 -a 0 -x {2.0 1.0 12 ------- null}
- -t 1.4004736 -s 0 -d 4 -p tcp -e 1040 -c 0 -i 30 -a 0 -x {0.0 3.0 9 ------- null}
h -t 1.4004736 -s 0 -d 4 -p tcp -e 1040 -c 0 -i 30 -a 0 -x {0.0 3.0 -1 ------- null}
+ -t 1.4005802 -s 0 -d 4 -p tcp -e 1040 -c 0 -i 34 -a 0 -x {0.0 3.0 13 ------- null}
+ -t 1.4005802 -s 0 -d 4 -p tcp -e 1040 -c 0 -i 35 -a 0 -x {0.0 3.0 14 ------- null}
r -t 1.4005802 -s 4 -d 2 -p ack -e 40 -c 0 -i 27 -a 0 -x {1.0 2.0 6 ------- null}
h -t 1.4005802 -s 2 -d 4 -p tcp -e 1040 -c 0 -i 42 -a 0 -x {2.0 1.0 13 ------- null}
h -t 1.4005802 -s 2 -d 4 -p tcp -e 1040 -c 0 -i 43 -a 0 -x {2.0 1.0 14 ------- null}
- -t 1.4005802 -s 0 -d 4 -p tcp -e 1040 -c 0 -i 31 -a 0 -x {0.0 3.0 10 ------- null}
h -t 1.4005802 -s 0 -d 4 -p tcp -e 1040 -c 0 -i 31 -a 0 -x {0.0 3.0 -1 ------- null}
- -t 1.4006868 -s 0 -d 4 -p tcp -e 1040 -c 0 -i 32 -a 0 -x {0.0 3.0 11 ------- null}
h -t 1.4006868 -s 0 -d 4 -p tcp -e 1040 -c 0 -i 32 -a 0 -x {0.0 3.0 -1 ------- null}
- -t 1.4007934 -s 0 -d 4 -p tcp -e 1040 -c 0 -i 33 -a 0 -x {0.0 3.0 12 ------- null}
h -t 1.4007934 -s 0 -d 4 -p tcp -e 1040 -c 0 -i 33 -a 0 -x {0.0 3.0 -1 ------- null}
- -t 1.4009 -s 0 -d 4 -p tcp -e 1040 -c 0 -i 34 -a 0 -x {0.0 3.0 13 ------- null}
h -t 1.4009 -s 0 -d 4 -p tcp -e 1040 -c 0 -i 34 -a 0 -x {0.0 3.0 -1 ------- null}
- -t 1.4010066 -s 0 -d 4 -p tcp -e 1040 -c 0 -i 35 -a 0 -x {0.0 3.0 14 ------- null}
h -t 1.4010066 -s 0 -d 4 -p tcp -e 1040 -c 0 -i 35 -a 0 -x {0.0 3.0 -1 ------- null}
+ -t 1.5002604 -s 2 -d 4 -p tcp -e 1040 -c 0 -i 36 -a 0 -x {2.0 1.0 7 ------- null}
- -t 1.5002604 -s 2 -d 4 -p tcp -e 1040 -c 0 -i 36 -a 0 -x {2.0 1.0 7 ------- null}
h -t 1.5002604 -s 2 -d 4 -p tcp -e 1040 -c 0 -i 36 -a 0 -x {2.0 1.0 -1 ------- null}
+ -t 1.5002604 -s 2 -d 4 -p tcp -e 1040 -c 0 -i 37 -a 0 -x {2.0 1.0 8 ------- null}
+ -t 1.500367 -s 2 -d 4 -p tcp -e 1040 -c 0 -i 38 -a 0 -x {2.0 1.0 9 ------- null}
+ -t 1.500367 -s 2 -d 4 -p tcp -e 1040 -c 0 -i 39 -a 0 -x {2.0 1.0 10 ------- null}
- -t 1.500367 -s 2 -d 4 -p tcp -e 1040 -c 0 -i 37 -a 0 -x {2.0 1.0 8 ------- null}
h -t 1.500367 -s 2 -d 4 -p tcp -e 1040 -c 0 -i 37 -a 0 -x {2.0 1.0 -1 ------- null}
r -t 1.5003698 -s 4 -d 3 -p tcp -e 1040 -c 0 -i 28 -a 0 -x {0.0 3.0 7 ------- null}
h -t 1.5003698 -s 3 -d 4 -p ack -e 40 -c 0 -i 44 -a 0 -x {3.0 0.0 7 ------- null}
+ -t 1.5004736 -s 2 -d 4 -p tcp -e 1040 -c 0 -i 40 -a 0 -x {2.0 1.0 11 ------- null}
+ -t 1.5004736 -s 2 -d 4 -p tcp -e 1040 -c 0 -i 41 -a 0 -x {2.0 1.0 12 ------- null}
- -t 1.5004736 -s 2 -d 4 -p tcp -e 1040 -c 0 -i 38 -a 0 -x {2.0 1.0 9 ------- null}
h -t 1.5004736 -s 2 -d 4 -p tcp -e 1040 -c 0 -i 38 -a 0 -x {2.0 1.0 -1 ------- null}
r -t 1.5004764 -s 4 -d 3 -p tcp -e 1040 -c 0 -i 29 -a 0 -x {0.0 3.0 8 ------- null}
h -t 1.5004764 -s 3 -d 4 -p ack -e 40 -c 0 -i 45 -a 0 -x {3.0 0.0 8 ------- null}
+ -t 1.5005802 -s 2 -d 4 -p tcp -e 1040 -c 0 -i 42 -a 0 -x {2.0 1.0 13 ------- null}
+ -t 1.5005802 -s 2 -d 4 -p tcp -e 1040 -c 0 -i 43 -a 0 -x {2.0 1.0 14 ------- null}
- -t 1.5005802 -s 2 -d 4 -p tcp -e 1040 -c 0 -i 39 -a 0 -x {2.0 1.0 10 ------- null}
h -t 1.5005802 -s 2 -d 4 -p tcp -e 1040 -c 0 -i 39 -a 0 -x {2.0 1.0 -1 ------- null}
r -t 1.500583 -s 4 -d 3 -p tcp -e 1040 -c 0 -i 30 -a 0 -x {0.0 3.0 9 ------- null}
h -t 1.500583 -s 3 -d 4 -p ack -e 40 -c 0 -i 46 -a 0 -x {3.0 0.0 9 ------- null}
- -t 1.5006868 -s 2 -d 4 -p tcp -e 1040 -c 0 -i 40 -a 0 -x {2.0 1.0 11 ------- null}
h -t 1.5006868 -s 2 -d 4 -p tcp -e 1040 -c 0 -i 40 -a 0 -x {2.0 1.0 -1 ------- null}
r -t 1.5006896 -s 4 -d 3 -p tcp -e 1040 -c 0 -i 31 -a 0 -x {0.0 3.0 10 ------- null}
h -t 1.5006896 -s 3 -d 4 -p ack -e 40 -c 0 -i 47 -a 0 -x {3.0 0.0 10 ------- null}
- -t 1.5007934 -s 2 -d 4 -p tcp -e 1040 -c 0 -i 41 -a 0 -x {2.0 1.0 12 ------- null}
h -t 1.5007934 -s 2 -d 4 -p tcp -e 1040 -c 0 -i 41 -a 0 -x {2.0 1.0 -1 ------- null}
r -t 1.5007962 -s 4 -d 3 -p tcp -e 1040 -c 0 -i 32 -a 0 -x {0.0 3.0 11 ------- null}
h -t 1.5007962 -s 3 -d 4 -p ack -e 40 -c 0 -i 48 -a 0 -x {3.0 0.0 11 ------- null}
- -t 1.5009 -s 2 -d 4 -p tcp -e 1040 -c 0 -i 42 -a 0 -x {2.0 1.0 13 ------- null}
h -t 1.5009 -s 2 -d 4 -p tcp -e 1040 -c 0 -i 42 -a 0 -x {2.0 1.0 -1 ------- null}
r -t 1.5009028 -s 4 -d 3 -p tcp -e 1040 -c 0 -i 33 -a 0 -x {0.0 3.0 12 ------- null}
h -t 1.5009028 -s 3 -d 4 -p ack -e 40 -c 0 -i 49 -a 0 -x {3.0 0.0 12 ------- null}
- -t 1.5010066 -s 2 -d 4 -p tcp -e 1040 -c 0 -i 43 -a 0 -x {2.0 1.0 14 ------- null}
h -t 1.5010066 -s 2 -d 4 -p tcp -e 1040 -c 0 -i 43 -a 0 -x {2.0 1.0 -1 ------- null}
r -t 1.5010094 -s 4 -d 3 -p tcp -e 1040 -c 0 -i 34 -a 0 -x {0.0 3.0 13 ------- null}
h -t 1.5010094 -s 3 -d 4 -p ack -e 40 -c 0 -i 50 -a 0 -x {3.0 0.0 13 ------- null}
r -t 1.501116 -s 4 -d 3 -p tcp -e 1040 -c 0 -i 35 -a 0 -x {0.0 3.0 14 ------- null}
h -t 1.501116 -s 3 -d 4 -p ack -e 40 -c 0 -i 51 -a 0 -x {3.0 0.0 14 ------- null}
+ -t 1.6003698 -s 3 -d 4 -p ack -e 40 -c 0 -i 44 -a 0 -x {3.0 0.0 7 ------- null}
- -t 1.6003698 -s 3 -d 4 -p ack -e 40 -c 0 -i 44 -a 0 -x {3.0 0.0 7 ------- null}
h -t 1.6003698 -s 3 -d 4 -p ack -e 40 -c 0 -i 44 -a 0 -x {3.0 0.0 -1 ------- null}
r -t 1.6003698 -s 4 -d 1 -p tcp -e 1040 -c 0 -i 36 -a 0 -x {2.0 1.0 7 ------- null}
h -t 1.6003698 -s 1 -d 4 -p ack -e 40 -c 0 -i 52 -a 0 -x {1.0 2.0 7 ------- null}
+ -t 1.6004764 -s 3 -d 4 -p ack -e 40 -c 0 -i 45 -a 0 -x {3.0 0.0 8 ------- null}
- -t 1.6004764 -s 3 -d 4 -p ack -e 40 -c 0 -i 45 -a 0 -x {3.0 0.0 8 ------- null}
h -t 1.6004764 -s 3 -d 4 -p ack -e 40 -c 0 -i 45 -a 0 -x {3.0 0.0 -1 ------- null}
r -t 1.6004764 -s 4 -d 1 -p tcp -e 1040 -c 0 -i 37 -a 0 -x {2.0 1.0 8 ------- null}
h -t 1.6004764 -s 1 -d 4 -p ack -e 40 -c 0 -i 53 -a 0 -x {1.0 2.0 8 ------- null}
+ -t 1.600583 -s 3 -d 4 -p ack -e 40 -c 0 -i 46 -a 0 -x {3.0 0.0 9 ------- null}
- -t 1.600583 -s 3 -d 4 -p ack -e 40 -c 0 -i 46 -a 0 -x {3.0 0.0 9 ------- null}
h -t 1.600583 -s 3 -d 4 -p ack -e 40 -c 0 -i 46 -a 0 -x {3.0 0.0 -1 ------- null}
r -t 1.600583 -s 4 -d 1 -p tcp -e 1040 -c 0 -i 38 -a 0 -x {2.0 1.0 9 ------- null}
h -t 1.600583 -s 1 -d 4 -p ack -e 40 -c 0 -i 54 -a 0 -x {1.0 2.0 9 ------- null}
+ -t 1.6006896 -s 3 -d 4 -p ack -e 40 -c 0 -i 47 -a 0 -x {3.0 0.0 10 ------- null}
- -t 1.6006896 -s 3 -d 4 -p ack -e 40 -c 0 -i 47 -a 0 -x {3.0 0.0 10 ------- null}
h -t 1.6006896 -s 3 -d 4 -p ack -e 40 -c 0 -i 47 -a 0 -x {3.0 0.0 -1 ------- null}
r -t 1.6006896 -s 4 -d 1 -p tcp -e 1040 -c 0 -i 39 -a 0 -x {2.0 1.0 10 ------- null}
h -t 1.6006896 -s 1 -d 4 -p ack -e 40 -c 0 -i 55 -a 0 -x {1.0 2.0 10 ------- null}
+ -t 1.6007962 -s 3 -d 4 -p ack -e 40 -c 0 -i 48 -a 0 -x {3.0 0.0 11 ------- null}
- -t 1.6007962 -s 3 -d 4 -p ack -e 40 -c 0 -i 48 -a 0 -x {3.0 0.0 11 ------- null}
h -t 1.6007962 -s 3 -d 4 -p ack -e 40 -c 0 -i 48 -a 0 -x {3.0 0.0 -1 ------- null}
r -t 1.6007962 -s 4 -d 1 -p tcp -e 1040 -c 0 -i 40 -a 0 -x {2.0 1.0 11 ------- null}
h -t 1.6007962 -s 1 -d 4 -p ack -e 40 -c 0 -i 56 -a 0 -x {1.0 2.0 11 ------- null}
+ -t 1.6009028 -s 3 -d 4 -p ack -e 40 -c 0 -i 49 -a 0 -x {3.0 0.0 12 ------- null}
- -t 1.6009028 -s 3 -d 4 -p ack -e 40 -c 0 -i 49 -a 0 -x {3.0 0.0 12 ------- null}
h -t 1.6009028 -s 3 -d 4 -p ack -e 40 -c 0 -i 49 -a 0 -x {3.0 0.0 -1 ------- null}
r -t 1.6009028 -s 4 -d 1 -p tcp -e 1040 -c 0 -i 41 -a 0 -x {2.0 1.0 12 ------- null}
h -t 1.6009028 -s 1 -d 4 -p ack -e 40 -c 0 -i 57 -a 0 -x {1.0 2.0 12 ------- null}
+ -t 1.6010094 -s 3 -d 4 -p ack -e 40 -c 0 -i 50 -a 0 -x {3.0 0.0 13 ------- null}
- -t 1.6010094 -s 3 -d 4 -p ack -e 40 -c 0 -i 50 -a 0 -x {3.0 0.0 13 ------- null}
h -t 1.6010094 -s 3 -d 4 -p ack -e 40 -c 0 -i 50 -a 0 -x {3.0 0.0 -1 ------- null}
r -t 1.6010094 -s 4 -d 1 -p tcp -e 1040 -c 0 -i 42 -a 0 -x {2.0 1.0 13 ------- null}
h -t 1.6010094 -s 1 -d 4 -p ack -e 40 -c 0 -i 58 -a 0 -x {1.0 2.0 13 ------- null}
+ -t 1.601116 -s 3 -d 4 -p ack -e 40 -c 0 -i 51 -a 0 -x {3.0 0.0 14 ------- null}
- -t 1.601116 -s 3 -d 4 -p ack -e 40 -c 0 -i 51 -a 0 -x {3.0 0.0 14 ------- null}
h -t 1.601116 -s 3 -d 4 -p ack -e 40 -c 0 -i 51 -a 0 -x {3.0 0.0 -1 ------- null}
r -t 1.601116 -s 4 -d 1 -p tcp -e 1040 -c 0 -i 43 -a 0 -x {2.0 1.0 14 ------- null}
h -t 1.601116 -s 1 -d 4 -p ack -e 40 -c 0 -i 59 -a 0 -x {1.0 2.0 14 ------- null}
+ -t 1.7003698 -s 1 -d 4 -p ack -e 40 -c 0 -i 52 -a 0 -x {1.0 2.0 7 ------- null}
- -t 1.7003698 -s 1 -d 4 -p ack -e 40 -c 0 -i 52 -a 0 -x {1.0 2.0 7 ------- null}
h -t 1.7003698 -s 1 -d 4 -p ack -e 40 -c 0 -i 52 -a 0 -x {1.0 2.0 -1 ------- null}
r -t 1.7003802 -s 4 -d 0 -p ack -e 40 -c 0 -i 44 -a 0 -x {3.0 0.0 7 ------- null}
+ -t 1.7004764 -s 1 -d 4 -p ack -e 40 -c 0 -i 53 -a 0 -x {1.0 2.0 8 ------- null}
- -t 1.7004764 -s 1 -d 4 -p ack -e 40 -c 0 -i 53 -a 0 -x {1.0 2.0 8 ------- null}
h -t 1.7004764 -s 1 -d 4 -p ack -e 40 -c 0 -i 53 -a 0 -x {1.0 2.0 -1 ------- null}
r -t 1.7004868 -s 4 -d 0 -p ack -e 40 -c 0 -i 45 -a 0 -x {3.0 0.0 8 ------- null}
+ -t 1.700583 -s 1 -d 4 -p ack -e 40 -c 0 -i 54 -a 0 -x {1.0 2.0 9 ------- null}
- -t 1.700583 -s 1 -d 4 -p ack -e 40 -c 0 -i 54 -a 0 -x {1.0 2.0 9 ------- null}
h -t 1.700583 -s 1 -d 4 -p ack -e 40 -c 0 -i 54 -a 0 -x {1.0 2.0 -1 ------- null}
r -t 1.7005934 -s 4 -d 0 -p ack -e 40 -c 0 -i 46 -a 0 -x {3.0 0.0 9 ------- null}
+ -t 1.7006896 -s 1 -d 4 -p ack -e 40 -c 0 -i 55 -a 0 -x {1.0 2.0 10 ------- null}
- -t 1.7006896 -s 1 -d 4 -p ack -e 40 -c 0 -i 55 -a 0 -x {1.0 2.0 10 ------- null}
h -t 1.7006896 -s 1 -d 4 -p ack -e 40 -c 0 -i 55 -a 0 -x {1.0 2.0 -1 ------- null}
r -t 1.7007 -s 4 -d 0 -p ack -e 40 -c 0 -i 47 -a 0 -x {3.0 0.0 10 ------- null}
+ -t 1.7007962 -s 1 -d 4 -p ack -e 40 -c 0 -i 56 -a 0 -x {1.0 2.0 11 ------- null}
- -t 1.7007962 -s 1 -d 4 -p ack -e 40 -c 0 -i 56 -a 0 -x {1.0 2.0 11 ------- null}
h -t 1.7007962 -s 1 -d 4 -p ack -e 40 -c 0 -i 56 -a 0 -x {1.0 2.0 -1 ------- null}
r -t 1.7008066 -s 4 -d 0 -p ack -e 40 -c 0 -i 48 -a 0 -x {3.0 0.0 11 ------- null}
+ -t 1.7009028 -s 1 -d 4 -p ack -e 40 -c 0 -i 57 -a 0 -x {1.0 2.0 12 ------- null}
- -t 1.7009028 -s 1 -d 4 -p ack -e 40 -c 0 -i 57 -a 0 -x {1.0 2.0 12 ------- null}
h -t 1.7009028 -s 1 -d 4 -p ack -e 40 -c 0 -i 57 -a 0 -x {1.0 2.0 -1 ------- null}
r -t 1.7009132 -s 4 -d 0 -p ack -e 40 -c 0 -i 49 -a 0 -x {3.0 0.0 12 ------- null}
+ -t 1.7010094 -s 1 -d 4 -p ack -e 40 -c 0 -i 58 -a 0 -x {1.0 2.0 13 ------- null}
- -t 1.7010094 -s 1 -d 4 -p ack -e 40 -c 0 -i 58 -a 0 -x {1.0 2.0 13 ------- null}
h -t 1.7010094 -s 1 -d 4 -p ack -e 40 -c 0 -i 58 -a 0 -x {1.0 2.0 -1 ------- null}
r -t 1.7010198 -s 4 -d 0 -p ack -e 40 -c 0 -i 50 -a 0 -x {3.0 0.0 13 ------- null}
+ -t 1.701116 -s 1 -d 4 -p ack -e 40 -c 0 -i 59 -a 0 -x {1.0 2.0 14 ------- null}
- -t 1.701116 -s 1 -d 4 -p ack -e 40 -c 0 -i 59 -a 0 -x {1.0 2.0 14 ------- null}
h -t 1.701116 -s 1 -d 4 -p ack -e 40 -c 0 -i 59 -a 0 -x {1.0 2.0 -1 ------- null}
r -t 1.7011264 -s 4 -d 0 -p ack -e 40 -c 0 -i 51 -a 0 -x {3.0 0.0 14 ------- null}
r -t 1.8003802 -s 4 -d 2 -p ack -e 40 -c 0 -i 52 -a 0 -x {1.0 2.0 7 ------- null}
h -t 1.8003802 -s 2 -d 4 -p tcp -e 1040 -c 0 -i 60 -a 0 -x {2.0 1.0 15 ------- null}
h -t 1.8003802 -s 2 -d 4 -p tcp -e 1040 -c 0 -i 61 -a 0 -x {2.0 1.0 16 ------- null}
r -t 1.8004868 -s 4 -d 2 -p ack -e 40 -c 0 -i 53 -a 0 -x {1.0 2.0 8 ------- null}
h -t 1.8004868 -s 2 -d 4 -p tcp -e 1040 -c 0 -i 62 -a 0 -x {2.0 1.0 17 ------- null}
h -t 1.8004868 -s 2 -d 4 -p tcp -e 1040 -c 0 -i 63 -a 0 -x {2.0 1.0 18 ------- null}
r -t 1.8005934 -s 4 -d 2 -p ack -e 40 -c 0 -i 54 -a 0 -x {1.0 2.0 9 ------- null}
h -t 1.8005934 -s 2 -d 4 -p tcp -e 1040 -c 0 -i 64 -a 0 -x {2.0 1.0 19 ------- null}
h -t 1.8005934 -s 2 -d 4 -p tcp -e 1040 -c 0 -i 65 -a 0 -x {2.0 1.0 20 ------- null}
r -t 1.8007 -s 4 -d 2 -p ack -e 40 -c 0 -i 55 -a 0 -x {1.0 2.0 10 ------- null}
h -t 1.8007 -s 2 -d 4 -p tcp -e 1040 -c 0 -i 66 -a 0 -x {2.0 1.0 21 ------- null}
h -t 1.8007 -s 2 -d 4 -p tcp -e 1040 -c 0 -i 67 -a 0 -x {2.0 1.0 22 ------- null}
r -t 1.8008066 -s 4 -d 2 -p ack -e 40 -c 0 -i 56 -a 0 -x {1.0 2.0 11 ------- null}
h -t 1.8008066 -s 2 -d 4 -p tcp -e 1040 -c 0 -i 68 -a 0 -x {2.0 1.0 23 ------- null}
h -t 1.8008066 -s 2 -d 4 -p tcp -e 1040 -c 0 -i 69 -a 0 -x {2.0 1.0 24 ------- null}
r -t 1.8009132 -s 4 -d 2 -p ack -e 40 -c 0 -i 57 -a 0 -x {1.0 2.0 12 ------- null}
h -t 1.8009132 -s 2 -d 4 -p tcp -e 1040 -c 0 -i 70 -a 0 -x {2.0 1.0 25 ------- null}
h -t 1.8009132 -s 2 -d 4 -p tcp -e 1040 -c 0 -i 71 -a 0 -x {2.0 1.0 26 ------- null}
r -t 1.8010198 -s 4 -d 2 -p ack -e 40 -c 0 -i 58 -a 0 -x {1.0 2.0 13 ------- null}
h -t 1.8010198 -s 2 -d 4 -p tcp -e 1040 -c 0 -i 72 -a 0 -x {2.0 1.0 27 ------- null}
h -t 1.8010198 -s 2 -d 4 -p tcp -e 1040 -c 0 -i 73 -a 0 -x {2.0 1.0 28 ------- null}
r -t 1.8011264 -s 4 -d 2 -p ack -e 40 -c 0 -i 59 -a 0 -x {1.0 2.0 14 ------- null}
h -t 1.8011264 -s 2 -d 4 -p tcp -e 1040 -c 0 -i 74 -a 0 -x {2.0 1.0 29 ------- null}
h -t 1.8011264 -s 2 -d 4 -p tcp -e 1040 -c 0 -i 75 -a 0 -x {2.0 1.0 30 ------- null}
+ -t 1.9003802 -s 2 -d 4 -p tcp -e 1040 -c 0 -i 60 -a 0 -x {2.0 1.0 15 ------- null}
- -t 1.9003802 -s 2 -d 4 -p tcp -e 1040 -c 0 -i 60 -a 0 -x {2.0 1.0 15 ------- null}
h -t 1.9003802 -s 2 -d 4 -p tcp -e 1040 -c 0 -i 60 -a 0 -x {2.0 1.0 -1 ------- null}
+ -t 1.9003802 -s 2 -d 4 -p tcp -e 1040 -c 0 -i 61 -a 0 -x {2.0 1.0 16 ------- null}
+ -t 1.9004868 -s 2 -d 4 -p tcp -e 1040 -c 0 -i 62 -a 0 -x {2.0 1.0 17 ------- null}
+ -t 1.9004868 -s 2 -d 4 -p tcp -e 1040 -c 0 -i 63 -a 0 -x {2.0 1.0 18 ------- null}
- -t 1.9004868 -s 2 -d 4 -p tcp -e 1040 -c 0 -i 61 -a 0 -x {2.0 1.0 16 ------- null}
h -t 1.9004868 -s 2 -d 4 -p tcp -e 1040 -c 0 -i 61 -a 0 -x {2.0 1.0 -1 ------- null}
+ -t 1.9005934 -s 2 -d 4 -p tcp -e 1040 -c 0 -i 64 -a 0 -x {2.0 1.0 19 ------- null}
+ -t 1.9005934 -s 2 -d 4 -p tcp -e 1040 -c 0 -i 65 -a 0 -x {2.0 1.0 20 ------- null}
- -t 1.9005934 -s 2 -d 4 -p tcp -e 1040 -c 0 -i 62 -a 0 -x {2.0 1.0 17 ------- null}
h -t 1.9005934 -s 2 -d 4 -p tcp -e 1040 -c 0 -i 62 -a 0 -x {2.0 1.0 -1 ------- null}
+ -t 1.9007 -s 2 -d 4 -p tcp -e 1040 -c 0 -i 66 -a 0 -x {2.0 1.0 21 ------- null}
+ -t 1.9007 -s 2 -d 4 -p tcp -e 1040 -c 0 -i 67 -a 0 -x {2.0 1.0 22 ------- null}
- -t 1.9007 -s 2 -d 4 -p tcp -e 1040 -c 0 -i 63 -a 0 -x {2.0 1.0 18 ------- null}
h -t 1.9007 -s 2 -d 4 -p tcp -e 1040 -c 0 -i 63 -a 0 -x {2.0 1.0 -1 ------- null}
+ -t 1.9008066 -s 2 -d 4 -p tcp -e 1040 -c 0 -i 68 -a 0 -x {2.0 1.0 23 ------- null}
+ -t 1.9008066 -s 2 -d 4 -p tcp -e 1040 -c 0 -i 69 -a 0 -x {2.0 1.0 24 ------- null}
- -t 1.9008066 -s 2 -d 4 -p tcp -e 1040 -c 0 -i 64 -a 0 -x {2.0 1.0 19 ------- null}
h -t 1.9008066 -s 2 -d 4 -p tcp -e 1040 -c 0 -i 64 -a 0 -x {2.0 1.0 -1 ------- null}
+ -t 1.9009132 -s 2 -d 4 -p tcp -e 1040 -c 0 -i 70 -a 0 -x {2.0 1.0 25 ------- null}
+ -t 1.9009132 -s 2 -d 4 -p tcp -e 1040 -c 0 -i 71 -a 0 -x {2.0 1.0 26 ------- null}
- -t 1.9009132 -s 2 -d 4 -p tcp -e 1040 -c 0 -i 65 -a 0 -x {2.0 1.0 20 ------- null}
h -t 1.9009132 -s 2 -d 4 -p tcp -e 1040 -c 0 -i 65 -a 0 -x {2.0 1.0 -1 ------- null}
+ -t 1.9010198 -s 2 -d 4 -p tcp -e 1040 -c 0 -i 72 -a 0 -x {2.0 1.0 27 ------- null}
+ -t 1.9010198 -s 2 -d 4 -p tcp -e 1040 -c 0 -i 73 -a 0 -x {2.0 1.0 28 ------- null}
- -t 1.9010198 -s 2 -d 4 -p tcp -e 1040 -c 0 -i 66 -a 0 -x {2.0 1.0 21 ------- null}
h -t 1.9010198 -s 2 -d 4 -p tcp -e 1040 -c 0 -i 66 -a 0 -x {2.0 1.0 -1 ------- null}
+ -t 1.9011264 -s 2 -d 4 -p tcp -e 1040 -c 0 -i 74 -a 0 -x {2.0 1.0 29 ------- null}
+ -t 1.9011264 -s 2 -d 4 -p tcp -e 1040 -c 0 -i 75 -a 0 -x {2.0 1.0 30 ------- null}
- -t 1.9011264 -s 2 -d 4 -p tcp -e 1040 -c 0 -i 67 -a 0 -x {2.0 1.0 22 ------- null}
h -t 1.9011264 -s 2 -d 4 -p tcp -e 1040 -c 0 -i 67 -a 0 -x {2.0 1.0 -1 ------- null}
- -t 1.901233 -s 2 -d 4 -p tcp -e 1040 -c 0 -i 68 -a 0 -x {2.0 1.0 23 ------- null}
h -t 1.901233 -s 2 -d 4 -p tcp -e 1040 -c 0 -i 68 -a 0 -x {2.0 1.0 -1 ------- null}
- -t 1.9013396 -s 2 -d 4 -p tcp -e 1040 -c 0 -i 69 -a 0 -x {2.0 1.0 24 ------- null}
h -t 1.9013396 -s 2 -d 4 -p tcp -e 1040 -c 0 -i 69 -a 0 -x {2.0 1.0 -1 ------- null}
- -t 1.9014462 -s 2 -d 4 -p tcp -e 1040 -c 0 -i 70 -a 0 -x {2.0 1.0 25 ------- null}
h -t 1.9014462 -s 2 -d 4 -p tcp -e 1040 -c 0 -i 70 -a 0 -x {2.0 1.0 -1 ------- null}
- -t 1.9015528 -s 2 -d 4 -p tcp -e 1040 -c 0 -i 71 -a 0 -x {2.0 1.0 26 ------- null}