+ 0.011 3 0 ping 500000 ------- 2 3.0 5.0 -1 0
- 0.011 3 0 ping 500000 ------- 2 3.0 5.0 -1 0
+ 0.011 6 0 ping 500000 ------- 1 6.0 2.0 -1 1
- 0.011 6 0 ping 500000 ------- 1 6.0 2.0 -1 1
+ 0.012 3 0 ping 500000 ------- 2 3.0 5.0 -1 2
+ 0.012 6 0 ping 500000 ------- 1 6.0 2.0 -1 3
+ 0.013 3 0 ping 500000 ------- 2 3.0 5.0 -1 4
+ 0.013 6 0 ping 500000 ------- 1 6.0 2.0 -1 5
+ 0.014 3 0 ping 500000 ------- 2 3.0 5.0 -1 6
+ 0.014 6 0 ping 500000 ------- 1 6.0 2.0 -1 7
+ 0.015 3 0 ping 500000 ------- 2 3.0 5.0 -1 8
+ 0.015 6 0 ping 500000 ------- 1 6.0 2.0 -1 9
+ 0.016 3 0 ping 500000 ------- 2 3.0 5.0 -1 10
+ 0.016 6 0 ping 500000 ------- 1 6.0 2.0 -1 11
+ 0.017 3 0 ping 500000 ------- 2 3.0 5.0 -1 12
+ 0.017 6 0 ping 500000 ------- 1 6.0 2.0 -1 13
+ 0.018 3 0 ping 500000 ------- 2 3.0 5.0 -1 14
+ 0.018 6 0 ping 500000 ------- 1 6.0 2.0 -1 15
+ 0.019 3 0 ping 500000 ------- 2 3.0 5.0 -1 16
+ 0.019 6 0 ping 500000 ------- 1 6.0 2.0 -1 17
+ 0.02 3 0 ping 500000 ------- 2 3.0 5.0 -1 18
+ 0.02 6 0 ping 500000 ------- 1 6.0 2.0 -1 19
+ 0.021 3 0 ping 500000 ------- 2 3.0 5.0 -1 20
+ 0.021 6 0 ping 500000 ------- 1 6.0 2.0 -1 21
+ 0.022 3 0 ping 500000 ------- 2 3.0 5.0 -1 22
+ 0.022 6 0 ping 500000 ------- 1 6.0 2.0 -1 23
+ 0.023 3 0 ping 500000 ------- 2 3.0 5.0 -1 24
+ 0.023 6 0 ping 500000 ------- 1 6.0 2.0 -1 25
+ 0.024 3 0 ping 500000 ------- 2 3.0 5.0 -1 26
+ 0.024 6 0 ping 500000 ------- 1 6.0 2.0 -1 27
+ 0.025 3 0 ping 500000 ------- 2 3.0 5.0 -1 28
+ 0.025 6 0 ping 500000 ------- 1 6.0 2.0 -1 29
+ 0.026 3 0 ping 500000 ------- 2 3.0 5.0 -1 30
+ 0.026 6 0 ping 500000 ------- 1 6.0 2.0 -1 31
+ 0.027 3 0 ping 500000 ------- 2 3.0 5.0 -1 32
+ 0.027 6 0 ping 500000 ------- 1 6.0 2.0 -1 33
+ 0.028 3 0 ping 500000 ------- 2 3.0 5.0 -1 34
+ 0.028 6 0 ping 500000 ------- 1 6.0 2.0 -1 35
+ 0.029 3 0 ping 500000 ------- 2 3.0 5.0 -1 36
+ 0.029 6 0 ping 500000 ------- 1 6.0 2.0 -1 37
+ 0.03 3 0 ping 500000 ------- 2 3.0 5.0 -1 38
+ 0.03 6 0 ping 500000 ------- 1 6.0 2.0 -1 39
+ 0.031 3 0 ping 500000 ------- 2 3.0 5.0 -1 40
+ 0.031 6 0 ping 500000 ------- 1 6.0 2.0 -1 41
+ 0.032 3 0 ping 500000 ------- 2 3.0 5.0 -1 42
+ 0.032 6 0 ping 500000 ------- 1 6.0 2.0 -1 43
+ 0.033 3 0 ping 500000 ------- 2 3.0 5.0 -1 44
+ 0.033 6 0 ping 500000 ------- 1 6.0 2.0 -1 45
+ 0.034 3 0 ping 500000 ------- 2 3.0 5.0 -1 46
+ 0.034 6 0 ping 500000 ------- 1 6.0 2.0 -1 47
+ 0.035 3 0 ping 500000 ------- 2 3.0 5.0 -1 48
+ 0.035 6 0 ping 500000 ------- 1 6.0 2.0 -1 49
+ 0.036 3 0 ping 500000 ------- 2 3.0 5.0 -1 50
+ 0.036 6 0 ping 500000 ------- 1 6.0 2.0 -1 51
+ 0.037 3 0 ping 500000 ------- 2 3.0 5.0 -1 52
+ 0.037 6 0 ping 500000 ------- 1 6.0 2.0 -1 53
+ 0.038 3 0 ping 500000 ------- 2 3.0 5.0 -1 54
+ 0.038 6 0 ping 500000 ------- 1 6.0 2.0 -1 55
+ 0.039 3 0 ping 500000 ------- 2 3.0 5.0 -1 56
+ 0.039 6 0 ping 500000 ------- 1 6.0 2.0 -1 57
+ 0.04 3 0 ping 500000 ------- 2 3.0 5.0 -1 58
+ 0.04 6 0 ping 500000 ------- 1 6.0 2.0 -1 59
+ 0.041 3 0 ping 500000 ------- 2 3.0 5.0 -1 60
+ 0.041 6 0 ping 500000 ------- 1 6.0 2.0 -1 61
+ 0.042 3 0 ping 500000 ------- 2 3.0 5.0 -1 62
+ 0.042 6 0 ping 500000 ------- 1 6.0 2.0 -1 63
+ 0.043 3 0 ping 500000 ------- 2 3.0 5.0 -1 64
+ 0.043 6 0 ping 500000 ------- 1 6.0 2.0 -1 65
+ 0.044 3 0 ping 500000 ------- 2 3.0 5.0 -1 66
+ 0.044 6 0 ping 500000 ------- 1 6.0 2.0 -1 67
+ 0.045 3 0 ping 500000 ------- 2 3.0 5.0 -1 68
+ 0.045 6 0 ping 500000 ------- 1 6.0 2.0 -1 69
+ 0.046 3 0 ping 500000 ------- 2 3.0 5.0 -1 70
+ 0.046 6 0 ping 500000 ------- 1 6.0 2.0 -1 71
+ 0.047 3 0 ping 500000 ------- 2 3.0 5.0 -1 72
+ 0.047 6 0 ping 500000 ------- 1 6.0 2.0 -1 73
+ 0.048 3 0 ping 500000 ------- 2 3.0 5.0 -1 74
+ 0.048 6 0 ping 500000 ------- 1 6.0 2.0 -1 75
+ 0.049 3 0 ping 500000 ------- 2 3.0 5.0 -1 76
+ 0.049 6 0 ping 500000 ------- 1 6.0 2.0 -1 77
+ 0.05 3 0 ping 500000 ------- 2 3.0 5.0 -1 78
+ 0.05 6 0 ping 500000 ------- 1 6.0 2.0 -1 79
+ 0.051 3 0 ping 500000 ------- 2 3.0 5.0 -1 80
+ 0.051 6 0 ping 500000 ------- 1 6.0 2.0 -1 81
+ 0.052 3 0 ping 500000 ------- 2 3.0 5.0 -1 82
+ 0.052 6 0 ping 500000 ------- 1 6.0 2.0 -1 83
+ 0.053 3 0 ping 500000 ------- 2 3.0 5.0 -1 84
+ 0.053 6 0 ping 500000 ------- 1 6.0 2.0 -1 85
+ 0.054 3 0 ping 500000 ------- 2 3.0 5.0 -1 86
+ 0.054 6 0 ping 500000 ------- 1 6.0 2.0 -1 87
+ 0.055 3 0 ping 500000 ------- 2 3.0 5.0 -1 88
+ 0.055 6 0 ping 500000 ------- 1 6.0 2.0 -1 89
+ 0.056 3 0 ping 500000 ------- 2 3.0 5.0 -1 90
+ 0.056 6 0 ping 500000 ------- 1 6.0 2.0 -1 91
+ 0.057 3 0 ping 500000 ------- 2 3.0 5.0 -1 92
+ 0.057 6 0 ping 500000 ------- 1 6.0 2.0 -1 93
+ 0.058 3 0 ping 500000 ------- 2 3.0 5.0 -1 94
+ 0.058 6 0 ping 500000 ------- 1 6.0 2.0 -1 95
+ 0.059 3 0 ping 500000 ------- 2 3.0 5.0 -1 96
+ 0.059 6 0 ping 500000 ------- 1 6.0 2.0 -1 97
+ 0.06 3 0 ping 500000 ------- 2 3.0 5.0 -1 98
+ 0.06 6 0 ping 500000 ------- 1 6.0 2.0 -1 99
+ 0.061 3 0 ping 500000 ------- 2 3.0 5.0 -1 100
d 0.061 3 0 ping 500000 ------- 2 3.0 5.0 -1 100
+ 0.061 6 0 ping 500000 ------- 1 6.0 2.0 -1 101
d 0.061 6 0 ping 500000 ------- 1 6.0 2.0 -1 101
+ 0.062 3 0 ping 500000 ------- 2 3.0 5.0 -1 102
d 0.062 3 0 ping 500000 ------- 2 3.0 5.0 -1 102
+ 0.062 6 0 ping 500000 ------- 1 6.0 2.0 -1 103
d 0.062 6 0 ping 500000 ------- 1 6.0 2.0 -1 103
+ 0.063 3 0 ping 500000 ------- 2 3.0 5.0 -1 104
d 0.063 3 0 ping 500000 ------- 2 3.0 5.0 -1 104
+ 0.063 6 0 ping 500000 ------- 1 6.0 2.0 -1 105
d 0.063 6 0 ping 500000 ------- 1 6.0 2.0 -1 105
+ 0.064 3 0 ping 500000 ------- 2 3.0 5.0 -1 106
d 0.064 3 0 ping 500000 ------- 2 3.0 5.0 -1 106
+ 0.064 6 0 ping 500000 ------- 1 6.0 2.0 -1 107
d 0.064 6 0 ping 500000 ------- 1 6.0 2.0 -1 107
+ 0.065 3 0 ping 500000 ------- 2 3.0 5.0 -1 108
d 0.065 3 0 ping 500000 ------- 2 3.0 5.0 -1 108
+ 0.065 6 0 ping 500000 ------- 1 6.0 2.0 -1 109
d 0.065 6 0 ping 500000 ------- 1 6.0 2.0 -1 109
+ 0.066 3 0 ping 500000 ------- 2 3.0 5.0 -1 110
d 0.066 3 0 ping 500000 ------- 2 3.0 5.0 -1 110
+ 0.066 6 0 ping 500000 ------- 1 6.0 2.0 -1 111
d 0.066 6 0 ping 500000 ------- 1 6.0 2.0 -1 111
+ 0.067 3 0 ping 500000 ------- 2 3.0 5.0 -1 112
d 0.067 3 0 ping 500000 ------- 2 3.0 5.0 -1 112
+ 0.067 6 0 ping 500000 ------- 1 6.0 2.0 -1 113
d 0.067 6 0 ping 500000 ------- 1 6.0 2.0 -1 113
+ 0.068 3 0 ping 500000 ------- 2 3.0 5.0 -1 114
d 0.068 3 0 ping 500000 ------- 2 3.0 5.0 -1 114
+ 0.068 6 0 ping 500000 ------- 1 6.0 2.0 -1 115
d 0.068 6 0 ping 500000 ------- 1 6.0 2.0 -1 115
+ 0.069 3 0 ping 500000 ------- 2 3.0 5.0 -1 116
d 0.069 3 0 ping 500000 ------- 2 3.0 5.0 -1 116
+ 0.069 6 0 ping 500000 ------- 1 6.0 2.0 -1 117
d 0.069 6 0 ping 500000 ------- 1 6.0 2.0 -1 117
+ 0.07 3 0 ping 500000 ------- 2 3.0 5.0 -1 118
d 0.07 3 0 ping 500000 ------- 2 3.0 5.0 -1 118
+ 0.07 6 0 ping 500000 ------- 1 6.0 2.0 -1 119
d 0.07 6 0 ping 500000 ------- 1 6.0 2.0 -1 119
+ 0.071 3 0 ping 500000 ------- 2 3.0 5.0 -1 120
d 0.071 3 0 ping 500000 ------- 2 3.0 5.0 -1 120
+ 0.071 6 0 ping 500000 ------- 1 6.0 2.0 -1 121
d 0.071 6 0 ping 500000 ------- 1 6.0 2.0 -1 121
+ 0.072 3 0 ping 500000 ------- 2 3.0 5.0 -1 122
d 0.072 3 0 ping 500000 ------- 2 3.0 5.0 -1 122
+ 0.072 6 0 ping 500000 ------- 1 6.0 2.0 -1 123
d 0.072 6 0 ping 500000 ------- 1 6.0 2.0 -1 123
+ 0.073 3 0 ping 500000 ------- 2 3.0 5.0 -1 124
d 0.073 3 0 ping 500000 ------- 2 3.0 5.0 -1 124
+ 0.073 6 0 ping 500000 ------- 1 6.0 2.0 -1 125
d 0.073 6 0 ping 500000 ------- 1 6.0 2.0 -1 125
+ 0.074 3 0 ping 500000 ------- 2 3.0 5.0 -1 126
d 0.074 3 0 ping 500000 ------- 2 3.0 5.0 -1 126
+ 0.074 6 0 ping 500000 ------- 1 6.0 2.0 -1 127
d 0.074 6 0 ping 500000 ------- 1 6.0 2.0 -1 127
+ 0.075 3 0 ping 500000 ------- 2 3.0 5.0 -1 128
d 0.075 3 0 ping 500000 ------- 2 3.0 5.0 -1 128
+ 0.075 6 0 ping 500000 ------- 1 6.0 2.0 -1 129
d 0.075 6 0 ping 500000 ------- 1 6.0 2.0 -1 129
+ 0.076 3 0 ping 500000 ------- 2 3.0 5.0 -1 130
d 0.076 3 0 ping 500000 ------- 2 3.0 5.0 -1 130
+ 0.076 6 0 ping 500000 ------- 1 6.0 2.0 -1 131
d 0.076 6 0 ping 500000 ------- 1 6.0 2.0 -1 131
+ 0.077 3 0 ping 500000 ------- 2 3.0 5.0 -1 132
d 0.077 3 0 ping 500000 ------- 2 3.0 5.0 -1 132
+ 0.077 6 0 ping 500000 ------- 1 6.0 2.0 -1 133
d 0.077 6 0 ping 500000 ------- 1 6.0 2.0 -1 133
+ 0.078 3 0 ping 500000 ------- 2 3.0 5.0 -1 134
d 0.078 3 0 ping 500000 ------- 2 3.0 5.0 -1 134
+ 0.078 6 0 ping 500000 ------- 1 6.0 2.0 -1 135
d 0.078 6 0 ping 500000 ------- 1 6.0 2.0 -1 135
+ 0.079 3 0 ping 500000 ------- 2 3.0 5.0 -1 136
d 0.079 3 0 ping 500000 ------- 2 3.0 5.0 -1 136
+ 0.079 6 0 ping 500000 ------- 1 6.0 2.0 -1 137
d 0.079 6 0 ping 500000 ------- 1 6.0 2.0 -1 137
+ 0.08 3 0 ping 500000 ------- 2 3.0 5.0 -1 138
d 0.08 3 0 ping 500000 ------- 2 3.0 5.0 -1 138
+ 0.08 6 0 ping 500000 ------- 1 6.0 2.0 -1 139
d 0.08 6 0 ping 500000 ------- 1 6.0 2.0 -1 139
+ 0.081 3 0 ping 500000 ------- 2 3.0 5.0 -1 140
d 0.081 3 0 ping 500000 ------- 2 3.0 5.0 -1 140
+ 0.081 6 0 ping 500000 ------- 1 6.0 2.0 -1 141
d 0.081 6 0 ping 500000 ------- 1 6.0 2.0 -1 141
+ 0.082 3 0 ping 500000 ------- 2 3.0 5.0 -1 142
d 0.082 3 0 ping 500000 ------- 2 3.0 5.0 -1 142
+ 0.082 6 0 ping 500000 ------- 1 6.0 2.0 -1 143
d 0.082 6 0 ping 500000 ------- 1 6.0 2.0 -1 143
+ 0.083 3 0 ping 500000 ------- 2 3.0 5.0 -1 144
d 0.083 3 0 ping 500000 ------- 2 3.0 5.0 -1 144
+ 0.083 6 0 ping 500000 ------- 1 6.0 2.0 -1 145
d 0.083 6 0 ping 500000 ------- 1 6.0 2.0 -1 145
+ 0.084 3 0 ping 500000 ------- 2 3.0 5.0 -1 146
d 0.084 3 0 ping 500000 ------- 2 3.0 5.0 -1 146
+ 0.084 6 0 ping 500000 ------- 1 6.0 2.0 -1 147
d 0.084 6 0 ping 500000 ------- 1 6.0 2.0 -1 147
+ 0.085 3 0 ping 500000 ------- 2 3.0 5.0 -1 148
d 0.085 3 0 ping 500000 ------- 2 3.0 5.0 -1 148
+ 0.085 6 0 ping 500000 ------- 1 6.0 2.0 -1 149
d 0.085 6 0 ping 500000 ------- 1 6.0 2.0 -1 149
+ 0.086 3 0 ping 500000 ------- 2 3.0 5.0 -1 150
d 0.086 3 0 ping 500000 ------- 2 3.0 5.0 -1 150
+ 0.086 6 0 ping 500000 ------- 1 6.0 2.0 -1 151
d 0.086 6 0 ping 500000 ------- 1 6.0 2.0 -1 151
+ 0.087 3 0 ping 500000 ------- 2 3.0 5.0 -1 152
d 0.087 3 0 ping 500000 ------- 2 3.0 5.0 -1 152
+ 0.087 6 0 ping 500000 ------- 1 6.0 2.0 -1 153
d 0.087 6 0 ping 500000 ------- 1 6.0 2.0 -1 153
+ 0.088 3 0 ping 500000 ------- 2 3.0 5.0 -1 154
d 0.088 3 0 ping 500000 ------- 2 3.0 5.0 -1 154
+ 0.088 6 0 ping 500000 ------- 1 6.0 2.0 -1 155
d 0.088 6 0 ping 500000 ------- 1 6.0 2.0 -1 155
+ 0.089 3 0 ping 500000 ------- 2 3.0 5.0 -1 156
d 0.089 3 0 ping 500000 ------- 2 3.0 5.0 -1 156
+ 0.089 6 0 ping 500000 ------- 1 6.0 2.0 -1 157
d 0.089 6 0 ping 500000 ------- 1 6.0 2.0 -1 157
+ 0.09 3 0 ping 500000 ------- 2 3.0 5.0 -1 158
d 0.09 3 0 ping 500000 ------- 2 3.0 5.0 -1 158
+ 0.09 6 0 ping 500000 ------- 1 6.0 2.0 -1 159
d 0.09 6 0 ping 500000 ------- 1 6.0 2.0 -1 159
+ 0.091 3 0 ping 500000 ------- 2 3.0 5.0 -1 160
d 0.091 3 0 ping 500000 ------- 2 3.0 5.0 -1 160
+ 0.091 6 0 ping 500000 ------- 1 6.0 2.0 -1 161
d 0.091 6 0 ping 500000 ------- 1 6.0 2.0 -1 161
+ 0.092 3 0 ping 500000 ------- 2 3.0 5.0 -1 162
d 0.092 3 0 ping 500000 ------- 2 3.0 5.0 -1 162
+ 0.092 6 0 ping 500000 ------- 1 6.0 2.0 -1 163
d 0.092 6 0 ping 500000 ------- 1 6.0 2.0 -1 163
+ 0.093 3 0 ping 500000 ------- 2 3.0 5.0 -1 164
d 0.093 3 0 ping 500000 ------- 2 3.0 5.0 -1 164
+ 0.093 6 0 ping 500000 ------- 1 6.0 2.0 -1 165
d 0.093 6 0 ping 500000 ------- 1 6.0 2.0 -1 165
+ 0.094 3 0 ping 500000 ------- 2 3.0 5.0 -1 166
d 0.094 3 0 ping 500000 ------- 2 3.0 5.0 -1 166
+ 0.094 6 0 ping 500000 ------- 1 6.0 2.0 -1 167
d 0.094 6 0 ping 500000 ------- 1 6.0 2.0 -1 167
+ 0.095 3 0 ping 500000 ------- 2 3.0 5.0 -1 168
d 0.095 3 0 ping 500000 ------- 2 3.0 5.0 -1 168
+ 0.095 6 0 ping 500000 ------- 1 6.0 2.0 -1 169
d 0.095 6 0 ping 500000 ------- 1 6.0 2.0 -1 169
+ 0.096 3 0 ping 500000 ------- 2 3.0 5.0 -1 170
d 0.096 3 0 ping 500000 ------- 2 3.0 5.0 -1 170
+ 0.096 6 0 ping 500000 ------- 1 6.0 2.0 -1 171
d 0.096 6 0 ping 500000 ------- 1 6.0 2.0 -1 171
+ 0.097 3 0 ping 500000 ------- 2 3.0 5.0 -1 172
d 0.097 3 0 ping 500000 ------- 2 3.0 5.0 -1 172
+ 0.097 6 0 ping 500000 ------- 1 6.0 2.0 -1 173
d 0.097 6 0 ping 500000 ------- 1 6.0 2.0 -1 173
+ 0.098 3 0 ping 500000 ------- 2 3.0 5.0 -1 174
d 0.098 3 0 ping 500000 ------- 2 3.0 5.0 -1 174
+ 0.098 6 0 ping 500000 ------- 1 6.0 2.0 -1 175
d 0.098 6 0 ping 500000 ------- 1 6.0 2.0 -1 175
+ 0.099 3 0 ping 500000 ------- 2 3.0 5.0 -1 176
d 0.099 3 0 ping 500000 ------- 2 3.0 5.0 -1 176
+ 0.099 6 0 ping 500000 ------- 1 6.0 2.0 -1 177
d 0.099 6 0 ping 500000 ------- 1 6.0 2.0 -1 177
+ 0.1 3 0 ping 500000 ------- 2 3.0 5.0 -1 178
d 0.1 3 0 ping 500000 ------- 2 3.0 5.0 -1 178
+ 0.1 6 0 ping 500000 ------- 1 6.0 2.0 -1 179
d 0.1 6 0 ping 500000 ------- 1 6.0 2.0 -1 179
+ 0.101 3 0 ping 500000 ------- 2 3.0 5.0 -1 180
d 0.101 3 0 ping 500000 ------- 2 3.0 5.0 -1 180
+ 0.101 6 0 ping 500000 ------- 1 6.0 2.0 -1 181
d 0.101 6 0 ping 500000 ------- 1 6.0 2.0 -1 181
+ 0.102 3 0 ping 500000 ------- 2 3.0 5.0 -1 182
d 0.102 3 0 ping 500000 ------- 2 3.0 5.0 -1 182
+ 0.102 6 0 ping 500000 ------- 1 6.0 2.0 -1 183
d 0.102 6 0 ping 500000 ------- 1 6.0 2.0 -1 183
+ 0.103 3 0 ping 500000 ------- 2 3.0 5.0 -1 184
d 0.103 3 0 ping 500000 ------- 2 3.0 5.0 -1 184
+ 0.103 6 0 ping 500000 ------- 1 6.0 2.0 -1 185
d 0.103 6 0 ping 500000 ------- 1 6.0 2.0 -1 185
+ 0.104 3 0 ping 500000 ------- 2 3.0 5.0 -1 186
d 0.104 3 0 ping 500000 ------- 2 3.0 5.0 -1 186
+ 0.104 6 0 ping 500000 ------- 1 6.0 2.0 -1 187
d 0.104 6 0 ping 500000 ------- 1 6.0 2.0 -1 187
+ 0.105 3 0 ping 500000 ------- 2 3.0 5.0 -1 188
d 0.105 3 0 ping 500000 ------- 2 3.0 5.0 -1 188
+ 0.105 6 0 ping 500000 ------- 1 6.0 2.0 -1 189
d 0.105 6 0 ping 500000 ------- 1 6.0 2.0 -1 189
+ 0.106 3 0 ping 500000 ------- 2 3.0 5.0 -1 190
d 0.106 3 0 ping 500000 ------- 2 3.0 5.0 -1 190
+ 0.106 6 0 ping 500000 ------- 1 6.0 2.0 -1 191
d 0.106 6 0 ping 500000 ------- 1 6.0 2.0 -1 191
+ 0.107 3 0 ping 500000 ------- 2 3.0 5.0 -1 192
d 0.107 3 0 ping 500000 ------- 2 3.0 5.0 -1 192
+ 0.107 6 0 ping 500000 ------- 1 6.0 2.0 -1 193
d 0.107 6 0 ping 500000 ------- 1 6.0 2.0 -1 193
+ 0.108 3 0 ping 500000 ------- 2 3.0 5.0 -1 194
d 0.108 3 0 ping 500000 ------- 2 3.0 5.0 -1 194
+ 0.108 6 0 ping 500000 ------- 1 6.0 2.0 -1 195
d 0.108 6 0 ping 500000 ------- 1 6.0 2.0 -1 195
+ 0.109 3 0 ping 500000 ------- 2 3.0 5.0 -1 196
d 0.109 3 0 ping 500000 ------- 2 3.0 5.0 -1 196
+ 0.109 6 0 ping 500000 ------- 1 6.0 2.0 -1 197
d 0.109 6 0 ping 500000 ------- 1 6.0 2.0 -1 197
+ 0.11 3 0 ping 500000 ------- 2 3.0 5.0 -1 198
d 0.11 3 0 ping 500000 ------- 2 3.0 5.0 -1 198
+ 0.11 6 0 ping 500000 ------- 1 6.0 2.0 -1 199
d 0.11 6 0 ping 500000 ------- 1 6.0 2.0 -1 199
+ 0.111 3 0 ping 500000 ------- 2 3.0 5.0 -1 200
d 0.111 3 0 ping 500000 ------- 2 3.0 5.0 -1 200
+ 0.111 6 0 ping 500000 ------- 1 6.0 2.0 -1 201
d 0.111 6 0 ping 500000 ------- 1 6.0 2.0 -1 201
+ 0.112 3 0 ping 500000 ------- 2 3.0 5.0 -1 202
d 0.112 3 0 ping 500000 ------- 2 3.0 5.0 -1 202
+ 0.112 6 0 ping 500000 ------- 1 6.0 2.0 -1 203
d 0.112 6 0 ping 500000 ------- 1 6.0 2.0 -1 203
+ 0.113 3 0 ping 500000 ------- 2 3.0 5.0 -1 204
d 0.113 3 0 ping 500000 ------- 2 3.0 5.0 -1 204
+ 0.113 6 0 ping 500000 ------- 1 6.0 2.0 -1 205
d 0.113 6 0 ping 500000 ------- 1 6.0 2.0 -1 205
+ 0.114 3 0 ping 500000 ------- 2 3.0 5.0 -1 206
d 0.114 3 0 ping 500000 ------- 2 3.0 5.0 -1 206
+ 0.114 6 0 ping 500000 ------- 1 6.0 2.0 -1 207
d 0.114 6 0 ping 500000 ------- 1 6.0 2.0 -1 207
+ 0.115 3 0 ping 500000 ------- 2 3.0 5.0 -1 208
d 0.115 3 0 ping 500000 ------- 2 3.0 5.0 -1 208
+ 0.115 6 0 ping 500000 ------- 1 6.0 2.0 -1 209
d 0.115 6 0 ping 500000 ------- 1 6.0 2.0 -1 209
+ 0.116 3 0 ping 500000 ------- 2 3.0 5.0 -1 210
d 0.116 3 0 ping 500000 ------- 2 3.0 5.0 -1 210
+ 0.116 6 0 ping 500000 ------- 1 6.0 2.0 -1 211
d 0.116 6 0 ping 500000 ------- 1 6.0 2.0 -1 211
+ 0.117 3 0 ping 500000 ------- 2 3.0 5.0 -1 212
d 0.117 3 0 ping 500000 ------- 2 3.0 5.0 -1 212
+ 0.117 6 0 ping 500000 ------- 1 6.0 2.0 -1 213
d 0.117 6 0 ping 500000 ------- 1 6.0 2.0 -1 213
+ 0.118 3 0 ping 500000 ------- 2 3.0 5.0 -1 214
d 0.118 3 0 ping 500000 ------- 2 3.0 5.0 -1 214
+ 0.118 6 0 ping 500000 ------- 1 6.0 2.0 -1 215
d 0.118 6 0 ping 500000 ------- 1 6.0 2.0 -1 215
+ 0.119 3 0 ping 500000 ------- 2 3.0 5.0 -1 216
d 0.119 3 0 ping 500000 ------- 2 3.0 5.0 -1 216
+ 0.119 6 0 ping 500000 ------- 1 6.0 2.0 -1 217
d 0.119 6 0 ping 500000 ------- 1 6.0 2.0 -1 217
+ 0.12 3 0 ping 500000 ------- 2 3.0 5.0 -1 218
d 0.12 3 0 ping 500000 ------- 2 3.0 5.0 -1 218
+ 0.12 6 0 ping 500000 ------- 1 6.0 2.0 -1 219
d 0.12 6 0 ping 500000 ------- 1 6.0 2.0 -1 219
+ 0.121 3 0 ping 500000 ------- 2 3.0 5.0 -1 220
d 0.121 3 0 ping 500000 ------- 2 3.0 5.0 -1 220
+ 0.121 6 0 ping 500000 ------- 1 6.0 2.0 -1 221
d 0.121 6 0 ping 500000 ------- 1 6.0 2.0 -1 221
+ 0.122 3 0 ping 500000 ------- 2 3.0 5.0 -1 222
d 0.122 3 0 ping 500000 ------- 2 3.0 5.0 -1 222
+ 0.122 6 0 ping 500000 ------- 1 6.0 2.0 -1 223
d 0.122 6 0 ping 500000 ------- 1 6.0 2.0 -1 223
+ 0.123 3 0 ping 500000 ------- 2 3.0 5.0 -1 224
d 0.123 3 0 ping 500000 ------- 2 3.0 5.0 -1 224
+ 0.123 6 0 ping 500000 ------- 1 6.0 2.0 -1 225
d 0.123 6 0 ping 500000 ------- 1 6.0 2.0 -1 225
+ 0.124 3 0 ping 500000 ------- 2 3.0 5.0 -1 226
d 0.124 3 0 ping 500000 ------- 2 3.0 5.0 -1 226
+ 0.124 6 0 ping 500000 ------- 1 6.0 2.0 -1 227
d 0.124 6 0 ping 500000 ------- 1 6.0 2.0 -1 227
+ 0.125 3 0 ping 500000 ------- 2 3.0 5.0 -1 228
d 0.125 3 0 ping 500000 ------- 2 3.0 5.0 -1 228
+ 0.125 6 0 ping 500000 ------- 1 6.0 2.0 -1 229
d 0.125 6 0 ping 500000 ------- 1 6.0 2.0 -1 229
+ 0.126 3 0 ping 500000 ------- 2 3.0 5.0 -1 230
d 0.126 3 0 ping 500000 ------- 2 3.0 5.0 -1 230
+ 0.126 6 0 ping 500000 ------- 1 6.0 2.0 -1 231
d 0.126 6 0 ping 500000 ------- 1 6.0 2.0 -1 231
+ 0.127 3 0 ping 500000 ------- 2 3.0 5.0 -1 232
d 0.127 3 0 ping 500000 ------- 2 3.0 5.0 -1 232
+ 0.127 6 0 ping 500000 ------- 1 6.0 2.0 -1 233
d 0.127 6 0 ping 500000 ------- 1 6.0 2.0 -1 233
+ 0.128 3 0 ping 500000 ------- 2 3.0 5.0 -1 234
d 0.128 3 0 ping 500000 ------- 2 3.0 5.0 -1 234
+ 0.128 6 0 ping 500000 ------- 1 6.0 2.0 -1 235
d 0.128 6 0 ping 500000 ------- 1 6.0 2.0 -1 235
+ 0.129 3 0 ping 500000 ------- 2 3.0 5.0 -1 236
d 0.129 3 0 ping 500000 ------- 2 3.0 5.0 -1 236
+ 0.129 6 0 ping 500000 ------- 1 6.0 2.0 -1 237
d 0.129 6 0 ping 500000 ------- 1 6.0 2.0 -1 237
+ 0.13 3 0 ping 500000 ------- 2 3.0 5.0 -1 238
d 0.13 3 0 ping 500000 ------- 2 3.0 5.0 -1 238
+ 0.13 6 0 ping 500000 ------- 1 6.0 2.0 -1 239
d 0.13 6 0 ping 500000 ------- 1 6.0 2.0 -1 239
+ 0.131 3 0 ping 500000 ------- 2 3.0 5.0 -1 240
d 0.131 3 0 ping 500000 ------- 2 3.0 5.0 -1 240
+ 0.131 6 0 ping 500000 ------- 1 6.0 2.0 -1 241
d 0.131 6 0 ping 500000 ------- 1 6.0 2.0 -1 241
+ 0.132 3 0 ping 500000 ------- 2 3.0 5.0 -1 242
d 0.132 3 0 ping 500000 ------- 2 3.0 5.0 -1 242
+ 0.132 6 0 ping 500000 ------- 1 6.0 2.0 -1 243
d 0.132 6 0 ping 500000 ------- 1 6.0 2.0 -1 243
+ 0.133 3 0 ping 500000 ------- 2 3.0 5.0 -1 244
d 0.133 3 0 ping 500000 ------- 2 3.0 5.0 -1 244
+ 0.133 6 0 ping 500000 ------- 1 6.0 2.0 -1 245
d 0.133 6 0 ping 500000 ------- 1 6.0 2.0 -1 245
+ 0.134 3 0 ping 500000 ------- 2 3.0 5.0 -1 246
d 0.134 3 0 ping 500000 ------- 2 3.0 5.0 -1 246
+ 0.134 6 0 ping 500000 ------- 1 6.0 2.0 -1 247
d 0.134 6 0 ping 500000 ------- 1 6.0 2.0 -1 247
+ 0.135 3 0 ping 500000 ------- 2 3.0 5.0 -1 248
d 0.135 3 0 ping 500000 ------- 2 3.0 5.0 -1 248
+ 0.135 6 0 ping 500000 ------- 1 6.0 2.0 -1 249
d 0.135 6 0 ping 500000 ------- 1 6.0 2.0 -1 249
+ 0.136 3 0 ping 500000 ------- 2 3.0 5.0 -1 250
d 0.136 3 0 ping 500000 ------- 2 3.0 5.0 -1 250
+ 0.136 6 0 ping 500000 ------- 1 6.0 2.0 -1 251
d 0.136 6 0 ping 500000 ------- 1 6.0 2.0 -1 251
+ 0.137 3 0 ping 500000 ------- 2 3.0 5.0 -1 252
d 0.137 3 0 ping 500000 ------- 2 3.0 5.0 -1 252
+ 0.137 6 0 ping 500000 ------- 1 6.0 2.0 -1 253
d 0.137 6 0 ping 500000 ------- 1 6.0 2.0 -1 253
+ 0.138 3 0 ping 500000 ------- 2 3.0 5.0 -1 254
d 0.138 3 0 ping 500000 ------- 2 3.0 5.0 -1 254
+ 0.138 6 0 ping 500000 ------- 1 6.0 2.0 -1 255
d 0.138 6 0 ping 500000 ------- 1 6.0 2.0 -1 255
+ 0.139 3 0 ping 500000 ------- 2 3.0 5.0 -1 256
d 0.139 3 0 ping 500000 ------- 2 3.0 5.0 -1 256
+ 0.139 6 0 ping 500000 ------- 1 6.0 2.0 -1 257
d 0.139 6 0 ping 500000 ------- 1 6.0 2.0 -1 257
+ 0.14 3 0 ping 500000 ------- 2 3.0 5.0 -1 258
d 0.14 3 0 ping 500000 ------- 2 3.0 5.0 -1 258
+ 0.14 6 0 ping 500000 ------- 1 6.0 2.0 -1 259
d 0.14 6 0 ping 500000 ------- 1 6.0 2.0 -1 259
+ 0.141 3 0 ping 500000 ------- 2 3.0 5.0 -1 260
d 0.141 3 0 ping 500000 ------- 2 3.0 5.0 -1 260
+ 0.141 6 0 ping 500000 ------- 1 6.0 2.0 -1 261
d 0.141 6 0 ping 500000 ------- 1 6.0 2.0 -1 261
+ 0.142 3 0 ping 500000 ------- 2 3.0 5.0 -1 262
d 0.142 3 0 ping 500000 ------- 2 3.0 5.0 -1 262
+ 0.142 6 0 ping 500000 ------- 1 6.0 2.0 -1 263
d 0.142 6 0 ping 500000 ------- 1 6.0 2.0 -1 263
+ 0.143 3 0 ping 500000 ------- 2 3.0 5.0 -1 264
d 0.143 3 0 ping 500000 ------- 2 3.0 5.0 -1 264
+ 0.143 6 0 ping 500000 ------- 1 6.0 2.0 -1 265
d 0.143 6 0 ping 500000 ------- 1 6.0 2.0 -1 265
+ 0.144 3 0 ping 500000 ------- 2 3.0 5.0 -1 266
d 0.144 3 0 ping 500000 ------- 2 3.0 5.0 -1 266
+ 0.144 6 0 ping 500000 ------- 1 6.0 2.0 -1 267
d 0.144 6 0 ping 500000 ------- 1 6.0 2.0 -1 267
+ 0.145 3 0 ping 500000 ------- 2 3.0 5.0 -1 268
d 0.145 3 0 ping 500000 ------- 2 3.0 5.0 -1 268
+ 0.145 6 0 ping 500000 ------- 1 6.0 2.0 -1 269
d 0.145 6 0 ping 500000 ------- 1 6.0 2.0 -1 269
+ 0.146 3 0 ping 500000 ------- 2 3.0 5.0 -1 270
d 0.146 3 0 ping 500000 ------- 2 3.0 5.0 -1 270
+ 0.146 6 0 ping 500000 ------- 1 6.0 2.0 -1 271
d 0.146 6 0 ping 500000 ------- 1 6.0 2.0 -1 271
+ 0.147 3 0 ping 500000 ------- 2 3.0 5.0 -1 272
d 0.147 3 0 ping 500000 ------- 2 3.0 5.0 -1 272
+ 0.147 6 0 ping 500000 ------- 1 6.0 2.0 -1 273
d 0.147 6 0 ping 500000 ------- 1 6.0 2.0 -1 273
+ 0.148 3 0 ping 500000 ------- 2 3.0 5.0 -1 274
d 0.148 3 0 ping 500000 ------- 2 3.0 5.0 -1 274
+ 0.148 6 0 ping 500000 ------- 1 6.0 2.0 -1 275
d 0.148 6 0 ping 500000 ------- 1 6.0 2.0 -1 275
+ 0.149 3 0 ping 500000 ------- 2 3.0 5.0 -1 276
d 0.149 3 0 ping 500000 ------- 2 3.0 5.0 -1 276
+ 0.149 6 0 ping 500000 ------- 1 6.0 2.0 -1 277
d 0.149 6 0 ping 500000 ------- 1 6.0 2.0 -1 277
+ 0.15 3 0 ping 500000 ------- 2 3.0 5.0 -1 278
d 0.15 3 0 ping 500000 ------- 2 3.0 5.0 -1 278
+ 0.15 6 0 ping 500000 ------- 1 6.0 2.0 -1 279
d 0.15 6 0 ping 500000 ------- 1 6.0 2.0 -1 279
+ 0.151 3 0 ping 500000 ------- 2 3.0 5.0 -1 280
d 0.151 3 0 ping 500000 ------- 2 3.0 5.0 -1 280
+ 0.151 6 0 ping 500000 ------- 1 6.0 2.0 -1 281
d 0.151 6 0 ping 500000 ------- 1 6.0 2.0 -1 281
+ 0.152 3 0 ping 500000 ------- 2 3.0 5.0 -1 282
d 0.152 3 0 ping 500000 ------- 2 3.0 5.0 -1 282
+ 0.152 6 0 ping 500000 ------- 1 6.0 2.0 -1 283
d 0.152 6 0 ping 500000 ------- 1 6.0 2.0 -1 283
+ 0.153 3 0 ping 500000 ------- 2 3.0 5.0 -1 284
d 0.153 3 0 ping 500000 ------- 2 3.0 5.0 -1 284
+ 0.153 6 0 ping 500000 ------- 1 6.0 2.0 -1 285
d 0.153 6 0 ping 500000 ------- 1 6.0 2.0 -1 285
+ 0.154 3 0 ping 500000 ------- 2 3.0 5.0 -1 286
d 0.154 3 0 ping 500000 ------- 2 3.0 5.0 -1 286
+ 0.154 6 0 ping 500000 ------- 1 6.0 2.0 -1 287
d 0.154 6 0 ping 500000 ------- 1 6.0 2.0 -1 287
+ 0.155 3 0 ping 500000 ------- 2 3.0 5.0 -1 288
d 0.155 3 0 ping 500000 ------- 2 3.0 5.0 -1 288
+ 0.155 6 0 ping 500000 ------- 1 6.0 2.0 -1 289
d 0.155 6 0 ping 500000 ------- 1 6.0 2.0 -1 289
+ 0.156 3 0 ping 500000 ------- 2 3.0 5.0 -1 290
d 0.156 3 0 ping 500000 ------- 2 3.0 5.0 -1 290
+ 0.156 6 0 ping 500000 ------- 1 6.0 2.0 -1 291
d 0.156 6 0 ping 500000 ------- 1 6.0 2.0 -1 291
+ 0.157 3 0 ping 500000 ------- 2 3.0 5.0 -1 292
d 0.157 3 0 ping 500000 ------- 2 3.0 5.0 -1 292
+ 0.157 6 0 ping 500000 ------- 1 6.0 2.0 -1 293
d 0.157 6 0 ping 500000 ------- 1 6.0 2.0 -1 293
+ 0.158 3 0 ping 500000 ------- 2 3.0 5.0 -1 294
d 0.158 3 0 ping 500000 ------- 2 3.0 5.0 -1 294
+ 0.158 6 0 ping 500000 ------- 1 6.0 2.0 -1 295
d 0.158 6 0 ping 500000 ------- 1 6.0 2.0 -1 295
+ 0.159 3 0 ping 500000 ------- 2 3.0 5.0 -1 296
d 0.159 3 0 ping 500000 ------- 2 3.0 5.0 -1 296
+ 0.159 6 0 ping 500000 ------- 1 6.0 2.0 -1 297
d 0.159 6 0 ping 500000 ------- 1 6.0 2.0 -1 297
+ 0.16 3 0 ping 500000 ------- 2 3.0 5.0 -1 298
d 0.16 3 0 ping 500000 ------- 2 3.0 5.0 -1 298
+ 0.16 6 0 ping 500000 ------- 1 6.0 2.0 -1 299
d 0.16 6 0 ping 500000 ------- 1 6.0 2.0 -1 299
+ 0.161 3 0 ping 500000 ------- 2 3.0 5.0 -1 300
d 0.161 3 0 ping 500000 ------- 2 3.0 5.0 -1 300
+ 0.161 6 0 ping 500000 ------- 1 6.0 2.0 -1 301
d 0.161 6 0 ping 500000 ------- 1 6.0 2.0 -1 301
+ 0.162 3 0 ping 500000 ------- 2 3.0 5.0 -1 302
d 0.162 3 0 ping 500000 ------- 2 3.0 5.0 -1 302
+ 0.162 6 0 ping 500000 ------- 1 6.0 2.0 -1 303
d 0.162 6 0 ping 500000 ------- 1 6.0 2.0 -1 303
+ 0.163 3 0 ping 500000 ------- 2 3.0 5.0 -1 304
d 0.163 3 0 ping 500000 ------- 2 3.0 5.0 -1 304
+ 0.163 6 0 ping 500000 ------- 1 6.0 2.0 -1 305
d 0.163 6 0 ping 500000 ------- 1 6.0 2.0 -1 305
+ 0.164 3 0 ping 500000 ------- 2 3.0 5.0 -1 306
d 0.164 3 0 ping 500000 ------- 2 3.0 5.0 -1 306
+ 0.164 6 0 ping 500000 ------- 1 6.0 2.0 -1 307
d 0.164 6 0 ping 500000 ------- 1 6.0 2.0 -1 307
+ 0.165 3 0 ping 500000 ------- 2 3.0 5.0 -1 308
d 0.165 3 0 ping 500000 ------- 2 3.0 5.0 -1 308
+ 0.165 6 0 ping 500000 ------- 1 6.0 2.0 -1 309
d 0.165 6 0 ping 500000 ------- 1 6.0 2.0 -1 309
+ 0.166 3 0 ping 500000 ------- 2 3.0 5.0 -1 310
d 0.166 3 0 ping 500000 ------- 2 3.0 5.0 -1 310
+ 0.166 6 0 ping 500000 ------- 1 6.0 2.0 -1 311
d 0.166 6 0 ping 500000 ------- 1 6.0 2.0 -1 311
+ 0.167 3 0 ping 500000 ------- 2 3.0 5.0 -1 312
d 0.167 3 0 ping 500000 ------- 2 3.0 5.0 -1 312
+ 0.167 6 0 ping 500000 ------- 1 6.0 2.0 -1 313
d 0.167 6 0 ping 500000 ------- 1 6.0 2.0 -1 313
+ 0.168 3 0 ping 500000 ------- 2 3.0 5.0 -1 314
d 0.168 3 0 ping 500000 ------- 2 3.0 5.0 -1 314
+ 0.168 6 0 ping 500000 ------- 1 6.0 2.0 -1 315
d 0.168 6 0 ping 500000 ------- 1 6.0 2.0 -1 315
+ 0.169 3 0 ping 500000 ------- 2 3.0 5.0 -1 316
d 0.169 3 0 ping 500000 ------- 2 3.0 5.0 -1 316
+ 0.169 6 0 ping 500000 ------- 1 6.0 2.0 -1 317
d 0.169 6 0 ping 500000 ------- 1 6.0 2.0 -1 317
+ 0.17 3 0 ping 500000 ------- 2 3.0 5.0 -1 318
d 0.17 3 0 ping 500000 ------- 2 3.0 5.0 -1 318
+ 0.17 6 0 ping 500000 ------- 1 6.0 2.0 -1 319
d 0.17 6 0 ping 500000 ------- 1 6.0 2.0 -1 319
+ 0.171 3 0 ping 500000 ------- 2 3.0 5.0 -1 320
d 0.171 3 0 ping 500000 ------- 2 3.0 5.0 -1 320
+ 0.171 6 0 ping 500000 ------- 1 6.0 2.0 -1 321
d 0.171 6 0 ping 500000 ------- 1 6.0 2.0 -1 321
+ 0.172 3 0 ping 500000 ------- 2 3.0 5.0 -1 322
d 0.172 3 0 ping 500000 ------- 2 3.0 5.0 -1 322
+ 0.172 6 0 ping 500000 ------- 1 6.0 2.0 -1 323
d 0.172 6 0 ping 500000 ------- 1 6.0 2.0 -1 323
+ 0.173 3 0 ping 500000 ------- 2 3.0 5.0 -1 324
d 0.173 3 0 ping 500000 ------- 2 3.0 5.0 -1 324
+ 0.173 6 0 ping 500000 ------- 1 6.0 2.0 -1 325
d 0.173 6 0 ping 500000 ------- 1 6.0 2.0 -1 325
+ 0.174 3 0 ping 500000 ------- 2 3.0 5.0 -1 326
d 0.174 3 0 ping 500000 ------- 2 3.0 5.0 -1 326
+ 0.174 6 0 ping 500000 ------- 1 6.0 2.0 -1 327
d 0.174 6 0 ping 500000 ------- 1 6.0 2.0 -1 327
+ 0.175 3 0 ping 500000 ------- 2 3.0 5.0 -1 328
d 0.175 3 0 ping 500000 ------- 2 3.0 5.0 -1 328
+ 0.175 6 0 ping 500000 ------- 1 6.0 2.0 -1 329
d 0.175 6 0 ping 500000 ------- 1 6.0 2.0 -1 329
+ 0.176 3 0 ping 500000 ------- 2 3.0 5.0 -1 330
d 0.176 3 0 ping 500000 ------- 2 3.0 5.0 -1 330
+ 0.176 6 0 ping 500000 ------- 1 6.0 2.0 -1 331
d 0.176 6 0 ping 500000 ------- 1 6.0 2.0 -1 331
+ 0.177 3 0 ping 500000 ------- 2 3.0 5.0 -1 332
d 0.177 3 0 ping 500000 ------- 2 3.0 5.0 -1 332
+ 0.177 6 0 ping 500000 ------- 1 6.0 2.0 -1 333
d 0.177 6 0 ping 500000 ------- 1 6.0 2.0 -1 333
+ 0.178 3 0 ping 500000 ------- 2 3.0 5.0 -1 334
d 0.178 3 0 ping 500000 ------- 2 3.0 5.0 -1 334
+ 0.178 6 0 ping 500000 ------- 1 6.0 2.0 -1 335
d 0.178 6 0 ping 500000 ------- 1 6.0 2.0 -1 335
+ 0.179 3 0 ping 500000 ------- 2 3.0 5.0 -1 336
d 0.179 3 0 ping 500000 ------- 2 3.0 5.0 -1 336
+ 0.179 6 0 ping 500000 ------- 1 6.0 2.0 -1 337
d 0.179 6 0 ping 500000 ------- 1 6.0 2.0 -1 337
+ 0.18 3 0 ping 500000 ------- 2 3.0 5.0 -1 338
d 0.18 3 0 ping 500000 ------- 2 3.0 5.0 -1 338
+ 0.18 6 0 ping 500000 ------- 1 6.0 2.0 -1 339
d 0.18 6 0 ping 500000 ------- 1 6.0 2.0 -1 339
+ 0.181 3 0 ping 500000 ------- 2 3.0 5.0 -1 340
d 0.181 3 0 ping 500000 ------- 2 3.0 5.0 -1 340
+ 0.181 6 0 ping 500000 ------- 1 6.0 2.0 -1 341
d 0.181 6 0 ping 500000 ------- 1 6.0 2.0 -1 341
+ 0.182 3 0 ping 500000 ------- 2 3.0 5.0 -1 342
d 0.182 3 0 ping 500000 ------- 2 3.0 5.0 -1 342
+ 0.182 6 0 ping 500000 ------- 1 6.0 2.0 -1 343
d 0.182 6 0 ping 500000 ------- 1 6.0 2.0 -1 343
+ 0.183 3 0 ping 500000 ------- 2 3.0 5.0 -1 344
d 0.183 3 0 ping 500000 ------- 2 3.0 5.0 -1 344
+ 0.183 6 0 ping 500000 ------- 1 6.0 2.0 -1 345
d 0.183 6 0 ping 500000 ------- 1 6.0 2.0 -1 345
+ 0.184 3 0 ping 500000 ------- 2 3.0 5.0 -1 346
d 0.184 3 0 ping 500000 ------- 2 3.0 5.0 -1 346
+ 0.184 6 0 ping 500000 ------- 1 6.0 2.0 -1 347
d 0.184 6 0 ping 500000 ------- 1 6.0 2.0 -1 347
+ 0.185 3 0 ping 500000 ------- 2 3.0 5.0 -1 348
d 0.185 3 0 ping 500000 ------- 2 3.0 5.0 -1 348
+ 0.185 6 0 ping 500000 ------- 1 6.0 2.0 -1 349
d 0.185 6 0 ping 500000 ------- 1 6.0 2.0 -1 349
+ 0.186 3 0 ping 500000 ------- 2 3.0 5.0 -1 350
d 0.186 3 0 ping 500000 ------- 2 3.0 5.0 -1 350
+ 0.186 6 0 ping 500000 ------- 1 6.0 2.0 -1 351
d 0.186 6 0 ping 500000 ------- 1 6.0 2.0 -1 351
+ 0.187 3 0 ping 500000 ------- 2 3.0 5.0 -1 352
d 0.187 3 0 ping 500000 ------- 2 3.0 5.0 -1 352
+ 0.187 6 0 ping 500000 ------- 1 6.0 2.0 -1 353
d 0.187 6 0 ping 500000 ------- 1 6.0 2.0 -1 353
+ 0.188 3 0 ping 500000 ------- 2 3.0 5.0 -1 354
d 0.188 3 0 ping 500000 ------- 2 3.0 5.0 -1 354
+ 0.188 6 0 ping 500000 ------- 1 6.0 2.0 -1 355
d 0.188 6 0 ping 500000 ------- 1 6.0 2.0 -1 355
+ 0.189 3 0 ping 500000 ------- 2 3.0 5.0 -1 356