V -t * -v 1.0a5 -a 0
A -t * -n 1 -p 0 -o 0x7fffffff -c 30 -a 1
A -t * -h 1 -m 1073741823 -s 0
c -t * -i 1 -n red
c -t * -i 2 -n blue
n -t * -a 4 -s 4 -S UP -v circle -c black -i black
n -t * -a 0 -s 0 -S UP -v circle -c black -i black
n -t * -a 5 -s 5 -S UP -v circle -c black -i black
n -t * -a 1 -s 1 -S UP -v circle -c black -i black
n -t * -a 6 -s 6 -S UP -v circle -c black -i black
n -t * -a 2 -s 2 -S UP -v circle -c black -i black
n -t * -a 3 -s 3 -S UP -v circle -c black -i black
l -t * -s 0 -d 1 -S UP -r 8000000 -D 0.001 -c black
l -t * -s 0 -d 2 -S UP -r 8000000 -D 0.001 -c black
l -t * -s 0 -d 3 -S UP -r 8000000 -D 0.001 -c black
l -t * -s 0 -d 4 -S UP -r 8000000 -D 0.001 -c black
l -t * -s 0 -d 5 -S UP -r 8000000 -D 0.001 -c black
l -t * -s 0 -d 6 -S UP -r 8000000 -D 0.001 -c black
+ -t 0.011 -s 3 -d 0 -p ping -e 500000 -c 2 -i 0 -a 2 -x {3.0 5.0 -1 ------- null}
- -t 0.011 -s 3 -d 0 -p ping -e 500000 -c 2 -i 0 -a 2 -x {3.0 5.0 -1 ------- null}
h -t 0.011 -s 3 -d 0 -p ping -e 500000 -c 2 -i 0 -a 2 -x {3.0 5.0 -1 ------- null}
+ -t 0.011 -s 6 -d 0 -p ping -e 500000 -c 1 -i 1 -a 1 -x {6.0 2.0 -1 ------- null}
- -t 0.011 -s 6 -d 0 -p ping -e 500000 -c 1 -i 1 -a 1 -x {6.0 2.0 -1 ------- null}
h -t 0.011 -s 6 -d 0 -p ping -e 500000 -c 1 -i 1 -a 1 -x {6.0 2.0 -1 ------- null}
+ -t 0.012 -s 3 -d 0 -p ping -e 500000 -c 2 -i 2 -a 2 -x {3.0 5.0 -1 ------- null}
+ -t 0.012 -s 6 -d 0 -p ping -e 500000 -c 1 -i 3 -a 1 -x {6.0 2.0 -1 ------- null}
+ -t 0.013 -s 3 -d 0 -p ping -e 500000 -c 2 -i 4 -a 2 -x {3.0 5.0 -1 ------- null}
+ -t 0.013 -s 6 -d 0 -p ping -e 500000 -c 1 -i 5 -a 1 -x {6.0 2.0 -1 ------- null}
+ -t 0.014 -s 3 -d 0 -p ping -e 500000 -c 2 -i 6 -a 2 -x {3.0 5.0 -1 ------- null}
+ -t 0.014 -s 6 -d 0 -p ping -e 500000 -c 1 -i 7 -a 1 -x {6.0 2.0 -1 ------- null}
+ -t 0.015 -s 3 -d 0 -p ping -e 500000 -c 2 -i 8 -a 2 -x {3.0 5.0 -1 ------- null}
+ -t 0.015 -s 6 -d 0 -p ping -e 500000 -c 1 -i 9 -a 1 -x {6.0 2.0 -1 ------- null}
+ -t 0.016 -s 3 -d 0 -p ping -e 500000 -c 2 -i 10 -a 2 -x {3.0 5.0 -1 ------- null}
+ -t 0.016 -s 6 -d 0 -p ping -e 500000 -c 1 -i 11 -a 1 -x {6.0 2.0 -1 ------- null}
+ -t 0.017 -s 3 -d 0 -p ping -e 500000 -c 2 -i 12 -a 2 -x {3.0 5.0 -1 ------- null}
+ -t 0.017 -s 6 -d 0 -p ping -e 500000 -c 1 -i 13 -a 1 -x {6.0 2.0 -1 ------- null}
+ -t 0.018 -s 3 -d 0 -p ping -e 500000 -c 2 -i 14 -a 2 -x {3.0 5.0 -1 ------- null}
+ -t 0.018 -s 6 -d 0 -p ping -e 500000 -c 1 -i 15 -a 1 -x {6.0 2.0 -1 ------- null}
+ -t 0.019 -s 3 -d 0 -p ping -e 500000 -c 2 -i 16 -a 2 -x {3.0 5.0 -1 ------- null}
+ -t 0.019 -s 6 -d 0 -p ping -e 500000 -c 1 -i 17 -a 1 -x {6.0 2.0 -1 ------- null}
+ -t 0.02 -s 3 -d 0 -p ping -e 500000 -c 2 -i 18 -a 2 -x {3.0 5.0 -1 ------- null}
+ -t 0.02 -s 6 -d 0 -p ping -e 500000 -c 1 -i 19 -a 1 -x {6.0 2.0 -1 ------- null}
+ -t 0.021 -s 3 -d 0 -p ping -e 500000 -c 2 -i 20 -a 2 -x {3.0 5.0 -1 ------- null}
+ -t 0.021 -s 6 -d 0 -p ping -e 500000 -c 1 -i 21 -a 1 -x {6.0 2.0 -1 ------- null}
+ -t 0.022 -s 3 -d 0 -p ping -e 500000 -c 2 -i 22 -a 2 -x {3.0 5.0 -1 ------- null}
+ -t 0.022 -s 6 -d 0 -p ping -e 500000 -c 1 -i 23 -a 1 -x {6.0 2.0 -1 ------- null}
+ -t 0.023 -s 3 -d 0 -p ping -e 500000 -c 2 -i 24 -a 2 -x {3.0 5.0 -1 ------- null}
+ -t 0.023 -s 6 -d 0 -p ping -e 500000 -c 1 -i 25 -a 1 -x {6.0 2.0 -1 ------- null}
+ -t 0.024 -s 3 -d 0 -p ping -e 500000 -c 2 -i 26 -a 2 -x {3.0 5.0 -1 ------- null}
+ -t 0.024 -s 6 -d 0 -p ping -e 500000 -c 1 -i 27 -a 1 -x {6.0 2.0 -1 ------- null}
+ -t 0.025 -s 3 -d 0 -p ping -e 500000 -c 2 -i 28 -a 2 -x {3.0 5.0 -1 ------- null}
+ -t 0.025 -s 6 -d 0 -p ping -e 500000 -c 1 -i 29 -a 1 -x {6.0 2.0 -1 ------- null}
+ -t 0.026 -s 3 -d 0 -p ping -e 500000 -c 2 -i 30 -a 2 -x {3.0 5.0 -1 ------- null}
+ -t 0.026 -s 6 -d 0 -p ping -e 500000 -c 1 -i 31 -a 1 -x {6.0 2.0 -1 ------- null}
+ -t 0.027 -s 3 -d 0 -p ping -e 500000 -c 2 -i 32 -a 2 -x {3.0 5.0 -1 ------- null}
+ -t 0.027 -s 6 -d 0 -p ping -e 500000 -c 1 -i 33 -a 1 -x {6.0 2.0 -1 ------- null}
+ -t 0.028 -s 3 -d 0 -p ping -e 500000 -c 2 -i 34 -a 2 -x {3.0 5.0 -1 ------- null}
+ -t 0.028 -s 6 -d 0 -p ping -e 500000 -c 1 -i 35 -a 1 -x {6.0 2.0 -1 ------- null}
+ -t 0.029 -s 3 -d 0 -p ping -e 500000 -c 2 -i 36 -a 2 -x {3.0 5.0 -1 ------- null}
+ -t 0.029 -s 6 -d 0 -p ping -e 500000 -c 1 -i 37 -a 1 -x {6.0 2.0 -1 ------- null}
+ -t 0.03 -s 3 -d 0 -p ping -e 500000 -c 2 -i 38 -a 2 -x {3.0 5.0 -1 ------- null}
+ -t 0.03 -s 6 -d 0 -p ping -e 500000 -c 1 -i 39 -a 1 -x {6.0 2.0 -1 ------- null}
+ -t 0.031 -s 3 -d 0 -p ping -e 500000 -c 2 -i 40 -a 2 -x {3.0 5.0 -1 ------- null}
+ -t 0.031 -s 6 -d 0 -p ping -e 500000 -c 1 -i 41 -a 1 -x {6.0 2.0 -1 ------- null}
+ -t 0.032 -s 3 -d 0 -p ping -e 500000 -c 2 -i 42 -a 2 -x {3.0 5.0 -1 ------- null}
+ -t 0.032 -s 6 -d 0 -p ping -e 500000 -c 1 -i 43 -a 1 -x {6.0 2.0 -1 ------- null}
+ -t 0.033 -s 3 -d 0 -p ping -e 500000 -c 2 -i 44 -a 2 -x {3.0 5.0 -1 ------- null}
+ -t 0.033 -s 6 -d 0 -p ping -e 500000 -c 1 -i 45 -a 1 -x {6.0 2.0 -1 ------- null}
+ -t 0.034 -s 3 -d 0 -p ping -e 500000 -c 2 -i 46 -a 2 -x {3.0 5.0 -1 ------- null}
+ -t 0.034 -s 6 -d 0 -p ping -e 500000 -c 1 -i 47 -a 1 -x {6.0 2.0 -1 ------- null}
+ -t 0.035 -s 3 -d 0 -p ping -e 500000 -c 2 -i 48 -a 2 -x {3.0 5.0 -1 ------- null}
+ -t 0.035 -s 6 -d 0 -p ping -e 500000 -c 1 -i 49 -a 1 -x {6.0 2.0 -1 ------- null}
+ -t 0.036 -s 3 -d 0 -p ping -e 500000 -c 2 -i 50 -a 2 -x {3.0 5.0 -1 ------- null}
+ -t 0.036 -s 6 -d 0 -p ping -e 500000 -c 1 -i 51 -a 1 -x {6.0 2.0 -1 ------- null}
+ -t 0.037 -s 3 -d 0 -p ping -e 500000 -c 2 -i 52 -a 2 -x {3.0 5.0 -1 ------- null}
+ -t 0.037 -s 6 -d 0 -p ping -e 500000 -c 1 -i 53 -a 1 -x {6.0 2.0 -1 ------- null}
+ -t 0.038 -s 3 -d 0 -p ping -e 500000 -c 2 -i 54 -a 2 -x {3.0 5.0 -1 ------- null}
+ -t 0.038 -s 6 -d 0 -p ping -e 500000 -c 1 -i 55 -a 1 -x {6.0 2.0 -1 ------- null}
+ -t 0.039 -s 3 -d 0 -p ping -e 500000 -c 2 -i 56 -a 2 -x {3.0 5.0 -1 ------- null}
+ -t 0.039 -s 6 -d 0 -p ping -e 500000 -c 1 -i 57 -a 1 -x {6.0 2.0 -1 ------- null}
+ -t 0.04 -s 3 -d 0 -p ping -e 500000 -c 2 -i 58 -a 2 -x {3.0 5.0 -1 ------- null}
+ -t 0.04 -s 6 -d 0 -p ping -e 500000 -c 1 -i 59 -a 1 -x {6.0 2.0 -1 ------- null}
+ -t 0.041 -s 3 -d 0 -p ping -e 500000 -c 2 -i 60 -a 2 -x {3.0 5.0 -1 ------- null}
+ -t 0.041 -s 6 -d 0 -p ping -e 500000 -c 1 -i 61 -a 1 -x {6.0 2.0 -1 ------- null}
+ -t 0.042 -s 3 -d 0 -p ping -e 500000 -c 2 -i 62 -a 2 -x {3.0 5.0 -1 ------- null}
+ -t 0.042 -s 6 -d 0 -p ping -e 500000 -c 1 -i 63 -a 1 -x {6.0 2.0 -1 ------- null}
+ -t 0.043 -s 3 -d 0 -p ping -e 500000 -c 2 -i 64 -a 2 -x {3.0 5.0 -1 ------- null}
+ -t 0.043 -s 6 -d 0 -p ping -e 500000 -c 1 -i 65 -a 1 -x {6.0 2.0 -1 ------- null}
+ -t 0.044 -s 3 -d 0 -p ping -e 500000 -c 2 -i 66 -a 2 -x {3.0 5.0 -1 ------- null}
+ -t 0.044 -s 6 -d 0 -p ping -e 500000 -c 1 -i 67 -a 1 -x {6.0 2.0 -1 ------- null}
+ -t 0.045 -s 3 -d 0 -p ping -e 500000 -c 2 -i 68 -a 2 -x {3.0 5.0 -1 ------- null}
+ -t 0.045 -s 6 -d 0 -p ping -e 500000 -c 1 -i 69 -a 1 -x {6.0 2.0 -1 ------- null}
+ -t 0.046 -s 3 -d 0 -p ping -e 500000 -c 2 -i 70 -a 2 -x {3.0 5.0 -1 ------- null}
+ -t 0.046 -s 6 -d 0 -p ping -e 500000 -c 1 -i 71 -a 1 -x {6.0 2.0 -1 ------- null}
+ -t 0.047 -s 3 -d 0 -p ping -e 500000 -c 2 -i 72 -a 2 -x {3.0 5.0 -1 ------- null}
+ -t 0.047 -s 6 -d 0 -p ping -e 500000 -c 1 -i 73 -a 1 -x {6.0 2.0 -1 ------- null}
+ -t 0.048 -s 3 -d 0 -p ping -e 500000 -c 2 -i 74 -a 2 -x {3.0 5.0 -1 ------- null}
+ -t 0.048 -s 6 -d 0 -p ping -e 500000 -c 1 -i 75 -a 1 -x {6.0 2.0 -1 ------- null}
+ -t 0.049 -s 3 -d 0 -p ping -e 500000 -c 2 -i 76 -a 2 -x {3.0 5.0 -1 ------- null}
+ -t 0.049 -s 6 -d 0 -p ping -e 500000 -c 1 -i 77 -a 1 -x {6.0 2.0 -1 ------- null}
+ -t 0.05 -s 3 -d 0 -p ping -e 500000 -c 2 -i 78 -a 2 -x {3.0 5.0 -1 ------- null}
+ -t 0.05 -s 6 -d 0 -p ping -e 500000 -c 1 -i 79 -a 1 -x {6.0 2.0 -1 ------- null}
+ -t 0.051 -s 3 -d 0 -p ping -e 500000 -c 2 -i 80 -a 2 -x {3.0 5.0 -1 ------- null}
+ -t 0.051 -s 6 -d 0 -p ping -e 500000 -c 1 -i 81 -a 1 -x {6.0 2.0 -1 ------- null}
+ -t 0.052 -s 3 -d 0 -p ping -e 500000 -c 2 -i 82 -a 2 -x {3.0 5.0 -1 ------- null}
+ -t 0.052 -s 6 -d 0 -p ping -e 500000 -c 1 -i 83 -a 1 -x {6.0 2.0 -1 ------- null}
+ -t 0.053 -s 3 -d 0 -p ping -e 500000 -c 2 -i 84 -a 2 -x {3.0 5.0 -1 ------- null}
+ -t 0.053 -s 6 -d 0 -p ping -e 500000 -c 1 -i 85 -a 1 -x {6.0 2.0 -1 ------- null}
+ -t 0.054 -s 3 -d 0 -p ping -e 500000 -c 2 -i 86 -a 2 -x {3.0 5.0 -1 ------- null}
+ -t 0.054 -s 6 -d 0 -p ping -e 500000 -c 1 -i 87 -a 1 -x {6.0 2.0 -1 ------- null}
+ -t 0.055 -s 3 -d 0 -p ping -e 500000 -c 2 -i 88 -a 2 -x {3.0 5.0 -1 ------- null}
+ -t 0.055 -s 6 -d 0 -p ping -e 500000 -c 1 -i 89 -a 1 -x {6.0 2.0 -1 ------- null}
+ -t 0.056 -s 3 -d 0 -p ping -e 500000 -c 2 -i 90 -a 2 -x {3.0 5.0 -1 ------- null}
+ -t 0.056 -s 6 -d 0 -p ping -e 500000 -c 1 -i 91 -a 1 -x {6.0 2.0 -1 ------- null}
+ -t 0.057 -s 3 -d 0 -p ping -e 500000 -c 2 -i 92 -a 2 -x {3.0 5.0 -1 ------- null}
+ -t 0.057 -s 6 -d 0 -p ping -e 500000 -c 1 -i 93 -a 1 -x {6.0 2.0 -1 ------- null}
+ -t 0.058 -s 3 -d 0 -p ping -e 500000 -c 2 -i 94 -a 2 -x {3.0 5.0 -1 ------- null}
+ -t 0.058 -s 6 -d 0 -p ping -e 500000 -c 1 -i 95 -a 1 -x {6.0 2.0 -1 ------- null}
+ -t 0.059 -s 3 -d 0 -p ping -e 500000 -c 2 -i 96 -a 2 -x {3.0 5.0 -1 ------- null}
+ -t 0.059 -s 6 -d 0 -p ping -e 500000 -c 1 -i 97 -a 1 -x {6.0 2.0 -1 ------- null}
+ -t 0.06 -s 3 -d 0 -p ping -e 500000 -c 2 -i 98 -a 2 -x {3.0 5.0 -1 ------- null}
+ -t 0.06 -s 6 -d 0 -p ping -e 500000 -c 1 -i 99 -a 1 -x {6.0 2.0 -1 ------- null}
+ -t 0.061 -s 3 -d 0 -p ping -e 500000 -c 2 -i 100 -a 2 -x {3.0 5.0 -1 ------- null}
d -t 0.061 -s 3 -d 0 -p ping -e 500000 -c 2 -i 100 -a 2 -x {3.0 5.0 -1 ------- null}
+ -t 0.061 -s 6 -d 0 -p ping -e 500000 -c 1 -i 101 -a 1 -x {6.0 2.0 -1 ------- null}
d -t 0.061 -s 6 -d 0 -p ping -e 500000 -c 1 -i 101 -a 1 -x {6.0 2.0 -1 ------- null}
+ -t 0.062 -s 3 -d 0 -p ping -e 500000 -c 2 -i 102 -a 2 -x {3.0 5.0 -1 ------- null}
d -t 0.062 -s 3 -d 0 -p ping -e 500000 -c 2 -i 102 -a 2 -x {3.0 5.0 -1 ------- null}
+ -t 0.062 -s 6 -d 0 -p ping -e 500000 -c 1 -i 103 -a 1 -x {6.0 2.0 -1 ------- null}
d -t 0.062 -s 6 -d 0 -p ping -e 500000 -c 1 -i 103 -a 1 -x {6.0 2.0 -1 ------- null}
+ -t 0.063 -s 3 -d 0 -p ping -e 500000 -c 2 -i 104 -a 2 -x {3.0 5.0 -1 ------- null}
d -t 0.063 -s 3 -d 0 -p ping -e 500000 -c 2 -i 104 -a 2 -x {3.0 5.0 -1 ------- null}
+ -t 0.063 -s 6 -d 0 -p ping -e 500000 -c 1 -i 105 -a 1 -x {6.0 2.0 -1 ------- null}
d -t 0.063 -s 6 -d 0 -p ping -e 500000 -c 1 -i 105 -a 1 -x {6.0 2.0 -1 ------- null}
+ -t 0.064 -s 3 -d 0 -p ping -e 500000 -c 2 -i 106 -a 2 -x {3.0 5.0 -1 ------- null}
d -t 0.064 -s 3 -d 0 -p ping -e 500000 -c 2 -i 106 -a 2 -x {3.0 5.0 -1 ------- null}
+ -t 0.064 -s 6 -d 0 -p ping -e 500000 -c 1 -i 107 -a 1 -x {6.0 2.0 -1 ------- null}
d -t 0.064 -s 6 -d 0 -p ping -e 500000 -c 1 -i 107 -a 1 -x {6.0 2.0 -1 ------- null}
+ -t 0.065 -s 3 -d 0 -p ping -e 500000 -c 2 -i 108 -a 2 -x {3.0 5.0 -1 ------- null}
d -t 0.065 -s 3 -d 0 -p ping -e 500000 -c 2 -i 108 -a 2 -x {3.0 5.0 -1 ------- null}
+ -t 0.065 -s 6 -d 0 -p ping -e 500000 -c 1 -i 109 -a 1 -x {6.0 2.0 -1 ------- null}
d -t 0.065 -s 6 -d 0 -p ping -e 500000 -c 1 -i 109 -a 1 -x {6.0 2.0 -1 ------- null}
+ -t 0.066 -s 3 -d 0 -p ping -e 500000 -c 2 -i 110 -a 2 -x {3.0 5.0 -1 ------- null}
d -t 0.066 -s 3 -d 0 -p ping -e 500000 -c 2 -i 110 -a 2 -x {3.0 5.0 -1 ------- null}
+ -t 0.066 -s 6 -d 0 -p ping -e 500000 -c 1 -i 111 -a 1 -x {6.0 2.0 -1 ------- null}
d -t 0.066 -s 6 -d 0 -p ping -e 500000 -c 1 -i 111 -a 1 -x {6.0 2.0 -1 ------- null}
+ -t 0.067 -s 3 -d 0 -p ping -e 500000 -c 2 -i 112 -a 2 -x {3.0 5.0 -1 ------- null}
d -t 0.067 -s 3 -d 0 -p ping -e 500000 -c 2 -i 112 -a 2 -x {3.0 5.0 -1 ------- null}
+ -t 0.067 -s 6 -d 0 -p ping -e 500000 -c 1 -i 113 -a 1 -x {6.0 2.0 -1 ------- null}
d -t 0.067 -s 6 -d 0 -p ping -e 500000 -c 1 -i 113 -a 1 -x {6.0 2.0 -1 ------- null}
+ -t 0.068 -s 3 -d 0 -p ping -e 500000 -c 2 -i 114 -a 2 -x {3.0 5.0 -1 ------- null}
d -t 0.068 -s 3 -d 0 -p ping -e 500000 -c 2 -i 114 -a 2 -x {3.0 5.0 -1 ------- null}
+ -t 0.068 -s 6 -d 0 -p ping -e 500000 -c 1 -i 115 -a 1 -x {6.0 2.0 -1 ------- null}
d -t 0.068 -s 6 -d 0 -p ping -e 500000 -c 1 -i 115 -a 1 -x {6.0 2.0 -1 ------- null}
+ -t 0.069 -s 3 -d 0 -p ping -e 500000 -c 2 -i 116 -a 2 -x {3.0 5.0 -1 ------- null}
d -t 0.069 -s 3 -d 0 -p ping -e 500000 -c 2 -i 116 -a 2 -x {3.0 5.0 -1 ------- null}
+ -t 0.069 -s 6 -d 0 -p ping -e 500000 -c 1 -i 117 -a 1 -x {6.0 2.0 -1 ------- null}
d -t 0.069 -s 6 -d 0 -p ping -e 500000 -c 1 -i 117 -a 1 -x {6.0 2.0 -1 ------- null}
+ -t 0.07 -s 3 -d 0 -p ping -e 500000 -c 2 -i 118 -a 2 -x {3.0 5.0 -1 ------- null}
d -t 0.07 -s 3 -d 0 -p ping -e 500000 -c 2 -i 118 -a 2 -x {3.0 5.0 -1 ------- null}
+ -t 0.07 -s 6 -d 0 -p ping -e 500000 -c 1 -i 119 -a 1 -x {6.0 2.0 -1 ------- null}
d -t 0.07 -s 6 -d 0 -p ping -e 500000 -c 1 -i 119 -a 1 -x {6.0 2.0 -1 ------- null}
+ -t 0.071 -s 3 -d 0 -p ping -e 500000 -c 2 -i 120 -a 2 -x {3.0 5.0 -1 ------- null}
d -t 0.071 -s 3 -d 0 -p ping -e 500000 -c 2 -i 120 -a 2 -x {3.0 5.0 -1 ------- null}
+ -t 0.071 -s 6 -d 0 -p ping -e 500000 -c 1 -i 121 -a 1 -x {6.0 2.0 -1 ------- null}
d -t 0.071 -s 6 -d 0 -p ping -e 500000 -c 1 -i 121 -a 1 -x {6.0 2.0 -1 ------- null}
+ -t 0.0720000000000001 -s 3 -d 0 -p ping -e 500000 -c 2 -i 122 -a 2 -x {3.0 5.0 -1 ------- null}
d -t 0.0720000000000001 -s 3 -d 0 -p ping -e 500000 -c 2 -i 122 -a 2 -x {3.0 5.0 -1 ------- null}
+ -t 0.0720000000000001 -s 6 -d 0 -p ping -e 500000 -c 1 -i 123 -a 1 -x {6.0 2.0 -1 ------- null}
d -t 0.0720000000000001 -s 6 -d 0 -p ping -e 500000 -c 1 -i 123 -a 1 -x {6.0 2.0 -1 ------- null}
+ -t 0.0730000000000001 -s 3 -d 0 -p ping -e 500000 -c 2 -i 124 -a 2 -x {3.0 5.0 -1 ------- null}
d -t 0.0730000000000001 -s 3 -d 0 -p ping -e 500000 -c 2 -i 124 -a 2 -x {3.0 5.0 -1 ------- null}
+ -t 0.0730000000000001 -s 6 -d 0 -p ping -e 500000 -c 1 -i 125 -a 1 -x {6.0 2.0 -1 ------- null}
d -t 0.0730000000000001 -s 6 -d 0 -p ping -e 500000 -c 1 -i 125 -a 1 -x {6.0 2.0 -1 ------- null}
+ -t 0.0740000000000001 -s 3 -d 0 -p ping -e 500000 -c 2 -i 126 -a 2 -x {3.0 5.0 -1 ------- null}
d -t 0.0740000000000001 -s 3 -d 0 -p ping -e 500000 -c 2 -i 126 -a 2 -x {3.0 5.0 -1 ------- null}
+ -t 0.0740000000000001 -s 6 -d 0 -p ping -e 500000 -c 1 -i 127 -a 1 -x {6.0 2.0 -1 ------- null}
d -t 0.0740000000000001 -s 6 -d 0 -p ping -e 500000 -c 1 -i 127 -a 1 -x {6.0 2.0 -1 ------- null}
+ -t 0.0750000000000001 -s 3 -d 0 -p ping -e 500000 -c 2 -i 128 -a 2 -x {3.0 5.0 -1 ------- null}
d -t 0.0750000000000001 -s 3 -d 0 -p ping -e 500000 -c 2 -i 128 -a 2 -x {3.0 5.0 -1 ------- null}
+ -t 0.0750000000000001 -s 6 -d 0 -p ping -e 500000 -c 1 -i 129 -a 1 -x {6.0 2.0 -1 ------- null}
d -t 0.0750000000000001 -s 6 -d 0 -p ping -e 500000 -c 1 -i 129 -a 1 -x {6.0 2.0 -1 ------- null}
+ -t 0.0760000000000001 -s 3 -d 0 -p ping -e 500000 -c 2 -i 130 -a 2 -x {3.0 5.0 -1 ------- null}
d -t 0.0760000000000001 -s 3 -d 0 -p ping -e 500000 -c 2 -i 130 -a 2 -x {3.0 5.0 -1 ------- null}
+ -t 0.0760000000000001 -s 6 -d 0 -p ping -e 500000 -c 1 -i 131 -a 1 -x {6.0 2.0 -1 ------- null}
d -t 0.0760000000000001 -s 6 -d 0 -p ping -e 500000 -c 1 -i 131 -a 1 -x {6.0 2.0 -1 ------- null}
+ -t 0.0770000000000001 -s 3 -d 0 -p ping -e 500000 -c 2 -i 132 -a 2 -x {3.0 5.0 -1 ------- null}
d -t 0.0770000000000001 -s 3 -d 0 -p ping -e 500000 -c 2 -i 132 -a 2 -x {3.0 5.0 -1 ------- null}
+ -t 0.0770000000000001 -s 6 -d 0 -p ping -e 500000 -c 1 -i 133 -a 1 -x {6.0 2.0 -1 ------- null}
d -t 0.0770000000000001 -s 6 -d 0 -p ping -e 500000 -c 1 -i 133 -a 1 -x {6.0 2.0 -1 ------- null}
+ -t 0.0780000000000001 -s 3 -d 0 -p ping -e 500000 -c 2 -i 134 -a 2 -x {3.0 5.0 -1 ------- null}
d -t 0.0780000000000001 -s 3 -d 0 -p ping -e 500000 -c 2 -i 134 -a 2 -x {3.0 5.0 -1 ------- null}
+ -t 0.0780000000000001 -s 6 -d 0 -p ping -e 500000 -c 1 -i 135 -a 1 -x {6.0 2.0 -1 ------- null}
d -t 0.0780000000000001 -s 6 -d 0 -p ping -e 500000 -c 1 -i 135 -a 1 -x {6.0 2.0 -1 ------- null}
+ -t 0.0790000000000001 -s 3 -d 0 -p ping -e 500000 -c 2 -i 136 -a 2 -x {3.0 5.0 -1 ------- null}
d -t 0.0790000000000001 -s 3 -d 0 -p ping -e 500000 -c 2 -i 136 -a 2 -x {3.0 5.0 -1 ------- null}
+ -t 0.0790000000000001 -s 6 -d 0 -p ping -e 500000 -c 1 -i 137 -a 1 -x {6.0 2.0 -1 ------- null}
d -t 0.0790000000000001 -s 6 -d 0 -p ping -e 500000 -c 1 -i 137 -a 1 -x {6.0 2.0 -1 ------- null}
+ -t 0.0800000000000001 -s 3 -d 0 -p ping -e 500000 -c 2 -i 138 -a 2 -x {3.0 5.0 -1 ------- null}
d -t 0.0800000000000001 -s 3 -d 0 -p ping -e 500000 -c 2 -i 138 -a 2 -x {3.0 5.0 -1 ------- null}
+ -t 0.0800000000000001 -s 6 -d 0 -p ping -e 500000 -c 1 -i 139 -a 1 -x {6.0 2.0 -1 ------- null}
d -t 0.0800000000000001 -s 6 -d 0 -p ping -e 500000 -c 1 -i 139 -a 1 -x {6.0 2.0 -1 ------- null}
+ -t 0.0810000000000001 -s 3 -d 0 -p ping -e 500000 -c 2 -i 140 -a 2 -x {3.0 5.0 -1 ------- null}
d -t 0.0810000000000001 -s 3 -d 0 -p ping -e 500000 -c 2 -i 140 -a 2 -x {3.0 5.0 -1 ------- null}
+ -t 0.0810000000000001 -s 6 -d 0 -p ping -e 500000 -c 1 -i 141 -a 1 -x {6.0 2.0 -1 ------- null}
d -t 0.0810000000000001 -s 6 -d 0 -p ping -e 500000 -c 1 -i 141 -a 1 -x {6.0 2.0 -1 ------- null}
+ -t 0.0820000000000001 -s 3 -d 0 -p ping -e 500000 -c 2 -i 142 -a 2 -x {3.0 5.0 -1 ------- null}
d -t 0.0820000000000001 -s 3 -d 0 -p ping -e 500000 -c 2 -i 142 -a 2 -x {3.0 5.0 -1 ------- null}
+ -t 0.0820000000000001 -s 6 -d 0 -p ping -e 500000 -c 1 -i 143 -a 1 -x {6.0 2.0 -1 ------- null}
d -t 0.0820000000000001 -s 6 -d 0 -p ping -e 500000 -c 1 -i 143 -a 1 -x {6.0 2.0 -1 ------- null}
+ -t 0.0830000000000001 -s 3 -d 0 -p ping -e 500000 -c 2 -i 144 -a 2 -x {3.0 5.0 -1 ------- null}
d -t 0.0830000000000001 -s 3 -d 0 -p ping -e 500000 -c 2 -i 144 -a 2 -x {3.0 5.0 -1 ------- null}
+ -t 0.0830000000000001 -s 6 -d 0 -p ping -e 500000 -c 1 -i 145 -a 1 -x {6.0 2.0 -1 ------- null}
d -t 0.0830000000000001 -s 6 -d 0 -p ping -e 500000 -c 1 -i 145 -a 1 -x {6.0 2.0 -1 ------- null}
+ -t 0.0840000000000001 -s 3 -d 0 -p ping -e 500000 -c 2 -i 146 -a 2 -x {3.0 5.0 -1 ------- null}
d -t 0.0840000000000001 -s 3 -d 0 -p ping -e 500000 -c 2 -i 146 -a 2 -x {3.0 5.0 -1 ------- null}
+ -t 0.0840000000000001 -s 6 -d 0 -p ping -e 500000 -c 1 -i 147 -a 1 -x {6.0 2.0 -1 ------- null}
d -t 0.0840000000000001 -s 6 -d 0 -p ping -e 500000 -c 1 -i 147 -a 1 -x {6.0 2.0 -1 ------- null}
+ -t 0.0850000000000001 -s 3 -d 0 -p ping -e 500000 -c 2 -i 148 -a 2 -x {3.0 5.0 -1 ------- null}
d -t 0.0850000000000001 -s 3 -d 0 -p ping -e 500000 -c 2 -i 148 -a 2 -x {3.0 5.0 -1 ------- null}
+ -t 0.0850000000000001 -s 6 -d 0 -p ping -e 500000 -c 1 -i 149 -a 1 -x {6.0 2.0 -1 ------- null}
d -t 0.0850000000000001 -s 6 -d 0 -p ping -e 500000 -c 1 -i 149 -a 1 -x {6.0 2.0 -1 ------- null}
+ -t 0.0860000000000001 -s 3 -d 0 -p ping -e 500000 -c 2 -i 150 -a 2 -x {3.0 5.0 -1 ------- null}
d -t 0.0860000000000001 -s 3 -d 0 -p ping -e 500000 -c 2 -i 150 -a 2 -x {3.0 5.0 -1 ------- null}
+ -t 0.0860000000000001 -s 6 -d 0 -p ping -e 500000 -c 1 -i 151 -a 1 -x {6.0 2.0 -1 ------- null}
d -t 0.0860000000000001 -s 6 -d 0 -p ping -e 500000 -c 1 -i 151 -a 1 -x {6.0 2.0 -1 ------- null}
+ -t 0.0870000000000001 -s 3 -d 0 -p ping -e 500000 -c 2 -i 152 -a 2 -x {3.0 5.0 -1 ------- null}
d -t 0.0870000000000001 -s 3 -d 0 -p ping -e 500000 -c 2 -i 152 -a 2 -x {3.0 5.0 -1 ------- null}
+ -t 0.0870000000000001 -s 6 -d 0 -p ping -e 500000 -c 1 -i 153 -a 1 -x {6.0 2.0 -1 ------- null}
d -t 0.0870000000000001 -s 6 -d 0 -p ping -e 500000 -c 1 -i 153 -a 1 -x {6.0 2.0 -1 ------- null}
+ -t 0.0880000000000001 -s 3 -d 0 -p ping -e 500000 -c 2 -i 154 -a 2 -x {3.0 5.0 -1 ------- null}
d -t 0.0880000000000001 -s 3 -d 0 -p ping -e 500000 -c 2 -i 154 -a 2 -x {3.0 5.0 -1 ------- null}
+ -t 0.0880000000000001 -s 6 -d 0 -p ping -e 500000 -c 1 -i 155 -a 1 -x {6.0 2.0 -1 ------- null}
d -t 0.0880000000000001 -s 6 -d 0 -p ping -e 500000 -c 1 -i 155 -a 1 -x {6.0 2.0 -1 ------- null}
+ -t 0.0890000000000001 -s 3 -d 0 -p ping -e 500000 -c 2 -i 156 -a 2 -x {3.0 5.0 -1 ------- null}
d -t 0.0890000000000001 -s 3 -d 0 -p ping -e 500000 -c 2 -i 156 -a 2 -x {3.0 5.0 -1 ------- null}
+ -t 0.0890000000000001 -s 6 -d 0 -p ping -e 500000 -c 1 -i 157 -a 1 -x {6.0 2.0 -1 ------- null}
d -t 0.0890000000000001 -s 6 -d 0 -p ping -e 500000 -c 1 -i 157 -a 1 -x {6.0 2.0 -1 ------- null}
+ -t 0.0900000000000001 -s 3 -d 0 -p ping -e 500000 -c 2 -i 158 -a 2 -x {3.0 5.0 -1 ------- null}
d -t 0.0900000000000001 -s 3 -d 0 -p ping -e 500000 -c 2 -i 158 -a 2 -x {3.0 5.0 -1 ------- null}
+ -t 0.0900000000000001 -s 6 -d 0 -p ping -e 500000 -c 1 -i 159 -a 1 -x {6.0 2.0 -1 ------- null}
d -t 0.0900000000000001 -s 6 -d 0 -p ping -e 500000 -c 1 -i 159 -a 1 -x {6.0 2.0 -1 ------- null}
+ -t 0.0910000000000001 -s 3 -d 0 -p ping -e 500000 -c 2 -i 160 -a 2 -x {3.0 5.0 -1 ------- null}
d -t 0.0910000000000001 -s 3 -d 0 -p ping -e 500000 -c 2 -i 160 -a 2 -x {3.0 5.0 -1 ------- null}
+ -t 0.0910000000000001 -s 6 -d 0 -p ping -e 500000 -c 1 -i 161 -a 1 -x {6.0 2.0 -1 ------- null}
d -t 0.0910000000000001 -s 6 -d 0 -p ping -e 500000 -c 1 -i 161 -a 1 -x {6.0 2.0 -1 ------- null}
+ -t 0.0920000000000001 -s 3 -d 0 -p ping -e 500000 -c 2 -i 162 -a 2 -x {3.0 5.0 -1 ------- null}
d -t 0.0920000000000001 -s 3 -d 0 -p ping -e 500000 -c 2 -i 162 -a 2 -x {3.0 5.0 -1 ------- null}
+ -t 0.0920000000000001 -s 6 -d 0 -p ping -e 500000 -c 1 -i 163 -a 1 -x {6.0 2.0 -1 ------- null}
d -t 0.0920000000000001 -s 6 -d 0 -p ping -e 500000 -c 1 -i 163 -a 1 -x {6.0 2.0 -1 ------- null}
+ -t 0.0930000000000001 -s 3 -d 0 -p ping -e 500000 -c 2 -i 164 -a 2 -x {3.0 5.0 -1 ------- null}
d -t 0.0930000000000001 -s 3 -d 0 -p ping -e 500000 -c 2 -i 164 -a 2 -x {3.0 5.0 -1 ------- null}
+ -t 0.0930000000000001 -s 6 -d 0 -p ping -e 500000 -c 1 -i 165 -a 1 -x {6.0 2.0 -1 ------- null}
d -t 0.0930000000000001 -s 6 -d 0 -p ping -e 500000 -c 1 -i 165 -a 1 -x {6.0 2.0 -1 ------- null}
+ -t 0.0940000000000001 -s 3 -d 0 -p ping -e 500000 -c 2 -i 166 -a 2 -x {3.0 5.0 -1 ------- null}
d -t 0.0940000000000001 -s 3 -d 0 -p ping -e 500000 -c 2 -i 166 -a 2 -x {3.0 5.0 -1 ------- null}
+ -t 0.0940000000000001 -s 6 -d 0 -p ping -e 500000 -c 1 -i 167 -a 1 -x {6.0 2.0 -1 ------- null}
d -t 0.0940000000000001 -s 6 -d 0 -p ping -e 500000 -c 1 -i 167 -a 1 -x {6.0 2.0 -1 ------- null}
+ -t 0.0950000000000001 -s 3 -d 0 -p ping -e 500000 -c 2 -i 168 -a 2 -x {3.0 5.0 -1 ------- null}
d -t 0.0950000000000001 -s 3 -d 0 -p ping -e 500000 -c 2 -i 168 -a 2 -x {3.0 5.0 -1 ------- null}
+ -t 0.0950000000000001 -s 6 -d 0 -p ping -e 500000 -c 1 -i 169 -a 1 -x {6.0 2.0 -1 ------- null}
d -t 0.0950000000000001 -s 6 -d 0 -p ping -e 500000 -c 1 -i 169 -a 1 -x {6.0 2.0 -1 ------- null}
+ -t 0.0960000000000001 -s 3 -d 0 -p ping -e 500000 -c 2 -i 170 -a 2 -x {3.0 5.0 -1 ------- null}
d -t 0.0960000000000001 -s 3 -d 0 -p ping -e 500000 -c 2 -i 170 -a 2 -x {3.0 5.0 -1 ------- null}
+ -t 0.0960000000000001 -s 6 -d 0 -p ping -e 500000 -c 1 -i 171 -a 1 -x {6.0 2.0 -1 ------- null}
d -t 0.0960000000000001 -s 6 -d 0 -p ping -e 500000 -c 1 -i 171 -a 1 -x {6.0 2.0 -1 ------- null}
+ -t 0.0970000000000001 -s 3 -d 0 -p ping -e 500000 -c 2 -i 172 -a 2 -x {3.0 5.0 -1 ------- null}
d -t 0.0970000000000001 -s 3 -d 0 -p ping -e 500000 -c 2 -i 172 -a 2 -x {3.0 5.0 -1 ------- null}
+ -t 0.0970000000000001 -s 6 -d 0 -p ping -e 500000 -c 1 -i 173 -a 1 -x {6.0 2.0 -1 ------- null}
d -t 0.0970000000000001 -s 6 -d 0 -p ping -e 500000 -c 1 -i 173 -a 1 -x {6.0 2.0 -1 ------- null}
+ -t 0.0980000000000001 -s 3 -d 0 -p ping -e 500000 -c 2 -i 174 -a 2 -x {3.0 5.0 -1 ------- null}
d -t 0.0980000000000001 -s 3 -d 0 -p ping -e 500000 -c 2 -i 174 -a 2 -x {3.0 5.0 -1 ------- null}
+ -t 0.0980000000000001 -s 6 -d 0 -p ping -e 500000 -c 1 -i 175 -a 1 -x {6.0 2.0 -1 ------- null}
d -t 0.0980000000000001 -s 6 -d 0 -p ping -e 500000 -c 1 -i 175 -a 1 -x {6.0 2.0 -1 ------- null}
+ -t 0.0990000000000001 -s 3 -d 0 -p ping -e 500000 -c 2 -i 176 -a 2 -x {3.0 5.0 -1 ------- null}
d -t 0.0990000000000001 -s 3 -d 0 -p ping -e 500000 -c 2 -i 176 -a 2 -x {3.0 5.0 -1 ------- null}
+ -t 0.0990000000000001 -s 6 -d 0 -p ping -e 500000 -c 1 -i 177 -a 1 -x {6.0 2.0 -1 ------- null}
d -t 0.0990000000000001 -s 6 -d 0 -p ping -e 500000 -c 1 -i 177 -a 1 -x {6.0 2.0 -1 ------- null}
+ -t 0.1 -s 3 -d 0 -p ping -e 500000 -c 2 -i 178 -a 2 -x {3.0 5.0 -1 ------- null}
d -t 0.1 -s 3 -d 0 -p ping -e 500000 -c 2 -i 178 -a 2 -x {3.0 5.0 -1 ------- null}
+ -t 0.1 -s 6 -d 0 -p ping -e 500000 -c 1 -i 179 -a 1 -x {6.0 2.0 -1 ------- null}
d -t 0.1 -s 6 -d 0 -p ping -e 500000 -c 1 -i 179 -a 1 -x {6.0 2.0 -1 ------- null}
+ -t 0.101 -s 3 -d 0 -p ping -e 500000 -c 2 -i 180 -a 2 -x {3.0 5.0 -1 ------- null}
d -t 0.101 -s 3 -d 0 -p ping -e 500000 -c 2 -i 180 -a 2 -x {3.0 5.0 -1 ------- null}
+ -t 0.101 -s 6 -d 0 -p ping -e 500000 -c 1 -i 181 -a 1 -x {6.0 2.0 -1 ------- null}
d -t 0.101 -s 6 -d 0 -p ping -e 500000 -c 1 -i 181 -a 1 -x {6.0 2.0 -1 ------- null}
+ -t 0.102 -s 3 -d 0 -p ping -e 500000 -c 2 -i 182 -a 2 -x {3.0 5.0 -1 ------- null}
d -t 0.102 -s 3 -d 0 -p ping -e 500000 -c 2 -i 182 -a 2 -x {3.0 5.0 -1 ------- null}
+ -t 0.102 -s 6 -d 0 -p ping -e 500000 -c 1 -i 183 -a 1 -x {6.0 2.0 -1 ------- null}
d -t 0.102 -s 6 -d 0 -p ping -e 500000 -c 1 -i 183 -a 1 -x {6.0 2.0 -1 ------- null}
+ -t 0.103 -s 3 -d 0 -p ping -e 500000 -c 2 -i 184 -a 2 -x {3.0 5.0 -1 ------- null}
d -t 0.103 -s 3 -d 0 -p ping -e 500000 -c 2 -i 184 -a 2 -x {3.0 5.0 -1 ------- null}
+ -t 0.103 -s 6 -d 0 -p ping -e 500000 -c 1 -i 185 -a 1 -x {6.0 2.0 -1 ------- null}
d -t 0.103 -s 6 -d 0 -p ping -e 500000 -c 1 -i 185 -a 1 -x {6.0 2.0 -1 ------- null}
+ -t 0.104 -s 3 -d 0 -p ping -e 500000 -c 2 -i 186 -a 2 -x {3.0 5.0 -1 ------- null}
d -t 0.104 -s 3 -d 0 -p ping -e 500000 -c 2 -i 186 -a 2 -x {3.0 5.0 -1 ------- null}
+ -t 0.104 -s 6 -d 0 -p ping -e 500000 -c 1 -i 187 -a 1 -x {6.0 2.0 -1 ------- null}
d -t 0.104 -s 6 -d 0 -p ping -e 500000 -c 1 -i 187 -a 1 -x {6.0 2.0 -1 ------- null}
+ -t 0.105 -s 3 -d 0 -p ping -e 500000 -c 2 -i 188 -a 2 -x {3.0 5.0 -1 ------- null}
d -t 0.105 -s 3 -d 0 -p ping -e 500000 -c 2 -i 188 -a 2 -x {3.0 5.0 -1 ------- null}
+ -t 0.105 -s 6 -d 0 -p ping -e 500000 -c 1 -i 189 -a 1 -x {6.0 2.0 -1 ------- null}
d -t 0.105 -s 6 -d 0 -p ping -e 500000 -c 1 -i 189 -a 1 -x {6.0 2.0 -1 ------- null}
+ -t 0.106 -s 3 -d 0 -p ping -e 500000 -c 2 -i 190 -a 2 -x {3.0 5.0 -1 ------- null}
d -t 0.106 -s 3 -d 0 -p ping -e 500000 -c 2 -i 190 -a 2 -x {3.0 5.0 -1 ------- null}
+ -t 0.106 -s 6 -d 0 -p ping -e 500000 -c 1 -i 191 -a 1 -x {6.0 2.0 -1 ------- null}
d -t 0.106 -s 6 -d 0 -p ping -e 500000 -c 1 -i 191 -a 1 -x {6.0 2.0 -1 ------- null}
+ -t 0.107 -s 3 -d 0 -p ping -e 500000 -c 2 -i 192 -a 2 -x {3.0 5.0 -1 ------- null}
d -t 0.107 -s 3 -d 0 -p ping -e 500000 -c 2 -i 192 -a 2 -x {3.0 5.0 -1 ------- null}
+ -t 0.107 -s 6 -d 0 -p ping -e 500000 -c 1 -i 193 -a 1 -x {6.0 2.0 -1 ------- null}
d -t 0.107 -s 6 -d 0 -p ping -e 500000 -c 1 -i 193 -a 1 -x {6.0 2.0 -1 ------- null}
+ -t 0.108 -s 3 -d 0 -p ping -e 500000 -c 2 -i 194 -a 2 -x {3.0 5.0 -1 ------- null}
d -t 0.108 -s 3 -d 0 -p ping -e 500000 -c 2 -i 194 -a 2 -x {3.0 5.0 -1 ------- null}
+ -t 0.108 -s 6 -d 0 -p ping -e 500000 -c 1 -i 195 -a 1 -x {6.0 2.0 -1 ------- null}
d -t 0.108 -s 6 -d 0 -p ping -e 500000 -c 1 -i 195 -a 1 -x {6.0 2.0 -1 ------- null}
+ -t 0.109 -s 3 -d 0 -p ping -e 500000 -c 2 -i 196 -a 2 -x {3.0 5.0 -1 ------- null}
d -t 0.109 -s 3 -d 0 -p ping -e 500000 -c 2 -i 196 -a 2 -x {3.0 5.0 -1 ------- null}
+ -t 0.109 -s 6 -d 0 -p ping -e 500000 -c 1 -i 197 -a 1 -x {6.0 2.0 -1 ------- null}
d -t 0.109 -s 6 -d 0 -p ping -e 500000 -c 1 -i 197 -a 1 -x {6.0 2.0 -1 ------- null}
+ -t 0.11 -s 3 -d 0 -p ping -e 500000 -c 2 -i 198 -a 2 -x {3.0 5.0 -1 ------- null}
d -t 0.11 -s 3 -d 0 -p ping -e 500000 -c 2 -i 198 -a 2 -x {3.0 5.0 -1 ------- null}
+ -t 0.11 -s 6 -d 0 -p ping -e 500000 -c 1 -i 199 -a 1 -x {6.0 2.0 -1 ------- null}
d -t 0.11 -s 6 -d 0 -p ping -e 500000 -c 1 -i 199 -a 1 -x {6.0 2.0 -1 ------- null}
+ -t 0.111 -s 3 -d 0 -p ping -e 500000 -c 2 -i 200 -a 2 -x {3.0 5.0 -1 ------- null}
d -t 0.111 -s 3 -d 0 -p ping -e 500000 -c 2 -i 200 -a 2 -x {3.0 5.0 -1 ------- null}
+ -t 0.111 -s 6 -d 0 -p ping -e 500000 -c 1 -i 201 -a 1 -x {6.0 2.0 -1 ------- null}
d -t 0.111 -s 6 -d 0 -p ping -e 500000 -c 1 -i 201 -a 1 -x {6.0 2.0 -1 ------- null}
+ -t 0.112 -s 3 -d 0 -p ping -e 500000 -c 2 -i 202 -a 2 -x {3.0 5.0 -1 ------- null}
d -t 0.112 -s 3 -d 0 -p ping -e 500000 -c 2 -i 202 -a 2 -x {3.0 5.0 -1 ------- null}
+ -t 0.112 -s 6 -d 0 -p ping -e 500000 -c 1 -i 203 -a 1 -x {6.0 2.0 -1 ------- null}
d -t 0.112 -s 6 -d 0 -p ping -e 500000 -c 1 -i 203 -a 1 -x {6.0 2.0 -1 ------- null}
+ -t 0.113 -s 3 -d 0 -p ping -e 500000 -c 2 -i 204 -a 2 -x {3.0 5.0 -1 ------- null}
d -t 0.113 -s 3 -d 0 -p ping -e 500000 -c 2 -i 204 -a 2 -x {3.0 5.0 -1 ------- null}
+ -t 0.113 -s 6 -d 0 -p ping -e 500000 -c 1 -i 205 -a 1 -x {6.0 2.0 -1 ------- null}
d -t 0.113 -s 6 -d 0 -p ping -e 500000 -c 1 -i 205 -a 1 -x {6.0 2.0 -1 ------- null}
+ -t 0.114 -s 3 -d 0 -p ping -e 500000 -c 2 -i 206 -a 2 -x {3.0 5.0 -1 ------- null}
d -t 0.114 -s 3 -d 0 -p ping -e 500000 -c 2 -i 206 -a 2 -x {3.0 5.0 -1 ------- null}
+ -t 0.114 -s 6 -d 0 -p ping -e 500000 -c 1 -i 207 -a 1 -x {6.0 2.0 -1 ------- null}
d -t 0.114 -s 6 -d 0 -p ping -e 500000 -c 1 -i 207 -a 1 -x {6.0 2.0 -1 ------- null}
+ -t 0.115 -s 3 -d 0 -p ping -e 500000 -c 2 -i 208 -a 2 -x {3.0 5.0 -1 ------- null}
d -t 0.115 -s 3 -d 0 -p ping -e 500000 -c 2 -i 208 -a 2 -x {3.0 5.0 -1 ------- null}
+ -t 0.115 -s 6 -d 0 -p ping -e 500000 -c 1 -i 209 -a 1 -x {6.0 2.0 -1 ------- null}
d -t 0.115 -s 6 -d 0 -p ping -e 500000 -c 1 -i 209 -a 1 -x {6.0 2.0 -1 ------- null}
+ -t 0.116 -s 3 -d 0 -p ping -e 500000 -c 2 -i 210 -a 2 -x {3.0 5.0 -1 ------- null}
d -t 0.116 -s 3 -d 0 -p ping -e 500000 -c 2 -i 210 -a 2 -x {3.0 5.0 -1 ------- null}
+ -t 0.116 -s 6 -d 0 -p ping -e 500000 -c 1 -i 211 -a 1 -x {6.0 2.0 -1 ------- null}
d -t 0.116 -s 6 -d 0 -p ping -e 500000 -c 1 -i 211 -a 1 -x {6.0 2.0 -1 ------- null}