n -t * -a 1.0.1  -s 4 -x 550 -y 550 -Z 0  -z 550 -v circle -c black
n -t * -a 2.0.1  -s 5 -x 150 -y 150 -Z 0  -z 150 -v circle -c black
V -t * -v 1.0a5 -a 0
W -t * -x 1000 -y 1000
A -t * -n 3 -p 0 -o 0x7fffffff -c 30 -a 1
A -t * -h 1 -m 511 -s 22
A -t * -h 2 -m 2047 -s 11
A -t * -h 3 -m 2047 -s 0
n -t * -a 0.0.0 -s 0 -S UP -v circle -c black -i black -x 50 -y 50 -Z 0
n -t * -a 0.0.1 -s 1 -S UP -v circle -c black -i black -x 90 -y 90 -Z 0
n -t * -a 1.0.0 -s 2 -S UP -v circle -c black -i black -x 650 -y 650 -Z 0
n -t * -a 2.0.0 -s 3 -S UP -v circle -c black -i black -x 90 -y 90 -Z 0
l -t * -s 2 -d 0 -S UP -r 80000000 -D 0.10000000000000001 -c black
l -t * -s 3 -d 0 -S UP -r 80000000 -D 0.10000000000000001 -c black
l -t * -s 0 -d 1 -S UP -r 800000000 -D 0.10000000000000001 -c black
+ -t 2.500000000 -s 4 -d -1 -p tcp -e 40 -c 2 -a 0 -i 6 -k AGT 
- -t 2.500000000 -s 4 -d -1 -p tcp -e 40 -c 2 -a 0 -i 6 -k AGT
h -t 2.500000000 -s 4 -d -1 -p tcp -e 40 -c 2 -a 0 -i 6 -k AGT
+ -t 2.500000000 -s 5 -d -1 -p tcp -e 40 -c 2 -a 0 -i 7 -k AGT 
- -t 2.500000000 -s 5 -d -1 -p tcp -e 40 -c 2 -a 0 -i 7 -k AGT
h -t 2.500000000 -s 5 -d -1 -p tcp -e 40 -c 2 -a 0 -i 7 -k AGT
+ -t 2.50461429983164 -s 2 -d 0 -p tcp -e 60 -c 0 -i 6 -a 0 -x {1.0.1.0 0.0.1.0 0 ------- null}
- -t 2.50461429983164 -s 2 -d 0 -p tcp -e 60 -c 0 -i 6 -a 0 -x {1.0.1.0 0.0.1.0 0 ------- null}
h -t 2.50461429983164 -s 2 -d 0 -p tcp -e 60 -c 0 -i 6 -a 0 -x {1.0.1.0 0.0.1.0 -1 ------- null}
r -t 2.504812980 -s 1 -d 1 -p tcp -e 60 -c 2 -a 0 -i 7 -k AGT
+ -t 2.504812980 -s 1 -d -1 -p ack -e 40 -c 2 -a 0 -i 8 -k AGT 
- -t 2.504812980 -s 1 -d -1 -p ack -e 40 -c 2 -a 0 -i 8 -k AGT
h -t 2.504812980 -s 1 -d -1 -p ack -e 40 -c 2 -a 0 -i 8 -k AGT
+ -t 2.50481297989899 -s 1 -d 0 -p ack -e 40 -c 0 -i 8 -a 0 -x {0.0.1.1 2.0.1.0 0 ------- null}
- -t 2.50481297989899 -s 1 -d 0 -p ack -e 40 -c 0 -i 8 -a 0 -x {0.0.1.1 2.0.1.0 0 ------- null}
h -t 2.50481297989899 -s 1 -d 0 -p ack -e 40 -c 0 -i 8 -a 0 -x {0.0.1.1 2.0.1.0 -1 ------- null}
r -t 2.60462029983164 -s 2 -d 0 -p tcp -e 60 -c 0 -i 6 -a 0 -x {1.0.1.0 0.0.1.0 0 ------- null}
+ -t 2.60462029983164 -s 0 -d 1 -p tcp -e 60 -c 0 -i 6 -a 0 -x {1.0.1.0 0.0.1.0 0 ------- null}
- -t 2.60462029983164 -s 0 -d 1 -p tcp -e 60 -c 0 -i 6 -a 0 -x {1.0.1.0 0.0.1.0 0 ------- null}
h -t 2.60462029983164 -s 0 -d 1 -p tcp -e 60 -c 0 -i 6 -a 0 -x {1.0.1.0 0.0.1.0 -1 ------- null}
r -t 2.60481337989899 -s 1 -d 0 -p ack -e 40 -c 0 -i 8 -a 0 -x {0.0.1.1 2.0.1.0 0 ------- null}
+ -t 2.60481337989899 -s 0 -d 3 -p ack -e 40 -c 0 -i 8 -a 0 -x {0.0.1.1 2.0.1.0 0 ------- null}
- -t 2.60481337989899 -s 0 -d 3 -p ack -e 40 -c 0 -i 8 -a 0 -x {0.0.1.1 2.0.1.0 0 ------- null}
h -t 2.60481337989899 -s 0 -d 3 -p ack -e 40 -c 0 -i 8 -a 0 -x {0.0.1.1 2.0.1.0 -1 ------- null}
r -t 2.70462089983164 -s 0 -d 1 -p tcp -e 60 -c 0 -i 6 -a 0 -x {1.0.1.0 0.0.1.0 0 ------- null}
r -t 2.704620900 -s 1 -d 2 -p tcp -e 60 -c 2 -a 0 -i 6 -k AGT
+ -t 2.704620900 -s 1 -d -1 -p ack -e 40 -c 2 -a 0 -i 9 -k AGT 
- -t 2.704620900 -s 1 -d -1 -p ack -e 40 -c 2 -a 0 -i 9 -k AGT
h -t 2.704620900 -s 1 -d -1 -p ack -e 40 -c 2 -a 0 -i 9 -k AGT
+ -t 2.70462089983164 -s 1 -d 0 -p ack -e 40 -c 0 -i 9 -a 0 -x {0.0.1.0 1.0.1.0 0 ------- null}
- -t 2.70462089983164 -s 1 -d 0 -p ack -e 40 -c 0 -i 9 -a 0 -x {0.0.1.0 1.0.1.0 0 ------- null}
h -t 2.70462089983164 -s 1 -d 0 -p ack -e 40 -c 0 -i 9 -a 0 -x {0.0.1.0 1.0.1.0 -1 ------- null}
r -t 2.70481737989899 -s 0 -d 3 -p ack -e 40 -c 0 -i 8 -a 0 -x {0.0.1.1 2.0.1.0 0 ------- null}
r -t 2.706958228 -s 5 -d 5 -p ack -e 40 -c 2 -a 0 -i 8 -k AGT
+ -t 2.706958228 -s 5 -d -1 -p tcp -e 5040 -c 2 -a 0 -i 10 -k AGT 
- -t 2.706958228 -s 5 -d -1 -p tcp -e 5040 -c 2 -a 0 -i 10 -k AGT
h -t 2.706958228 -s 5 -d -1 -p tcp -e 5040 -c 2 -a 0 -i 10 -k AGT
+ -t 2.706958228 -s 5 -d -1 -p tcp -e 5040 -c 2 -a 0 -i 11 -k AGT 
- -t 2.706958228 -s 5 -d -1 -p tcp -e 5040 -c 2 -a 0 -i 11 -k AGT
h -t 2.706958228 -s 5 -d -1 -p tcp -e 5040 -c 2 -a 0 -i 11 -k AGT
r -t 2.749003077 -s 1 -d 1 -p tcp -e 5060 -c 2 -a 0 -i 10 -k AGT
+ -t 2.749003077 -s 1 -d -1 -p ack -e 40 -c 2 -a 0 -i 12 -k AGT 
- -t 2.749003077 -s 1 -d -1 -p ack -e 40 -c 2 -a 0 -i 12 -k AGT
h -t 2.749003077 -s 1 -d -1 -p ack -e 40 -c 2 -a 0 -i 12 -k AGT
+ -t 2.74900307695526 -s 1 -d 0 -p ack -e 40 -c 0 -i 12 -a 0 -x {0.0.1.1 2.0.1.0 1 ------- null}
- -t 2.74900307695526 -s 1 -d 0 -p ack -e 40 -c 0 -i 12 -a 0 -x {0.0.1.1 2.0.1.0 1 ------- null}
h -t 2.74900307695526 -s 1 -d 0 -p ack -e 40 -c 0 -i 12 -a 0 -x {0.0.1.1 2.0.1.0 -1 ------- null}
r -t 2.791328208 -s 1 -d 1 -p tcp -e 5060 -c 2 -a 0 -i 11 -k AGT
+ -t 2.791328208 -s 1 -d -1 -p ack -e 40 -c 2 -a 0 -i 13 -k AGT 
- -t 2.791328208 -s 1 -d -1 -p ack -e 40 -c 2 -a 0 -i 13 -k AGT
h -t 2.791328208 -s 1 -d -1 -p ack -e 40 -c 2 -a 0 -i 13 -k AGT
+ -t 2.79132820832611 -s 1 -d 0 -p ack -e 40 -c 0 -i 13 -a 0 -x {0.0.1.1 2.0.1.0 2 ------- null}
- -t 2.79132820832611 -s 1 -d 0 -p ack -e 40 -c 0 -i 13 -a 0 -x {0.0.1.1 2.0.1.0 2 ------- null}
h -t 2.79132820832611 -s 1 -d 0 -p ack -e 40 -c 0 -i 13 -a 0 -x {0.0.1.1 2.0.1.0 -1 ------- null}
r -t 2.80462129983164 -s 1 -d 0 -p ack -e 40 -c 0 -i 9 -a 0 -x {0.0.1.0 1.0.1.0 0 ------- null}
+ -t 2.80462129983164 -s 0 -d 2 -p ack -e 40 -c 0 -i 9 -a 0 -x {0.0.1.0 1.0.1.0 0 ------- null}
- -t 2.80462129983164 -s 0 -d 2 -p ack -e 40 -c 0 -i 9 -a 0 -x {0.0.1.0 1.0.1.0 0 ------- null}
h -t 2.80462129983164 -s 0 -d 2 -p ack -e 40 -c 0 -i 9 -a 0 -x {0.0.1.0 1.0.1.0 -1 ------- null}
r -t 2.84900347695526 -s 1 -d 0 -p ack -e 40 -c 0 -i 12 -a 0 -x {0.0.1.1 2.0.1.0 1 ------- null}
+ -t 2.84900347695526 -s 0 -d 3 -p ack -e 40 -c 0 -i 12 -a 0 -x {0.0.1.1 2.0.1.0 1 ------- null}
- -t 2.84900347695526 -s 0 -d 3 -p ack -e 40 -c 0 -i 12 -a 0 -x {0.0.1.1 2.0.1.0 1 ------- null}
h -t 2.84900347695526 -s 0 -d 3 -p ack -e 40 -c 0 -i 12 -a 0 -x {0.0.1.1 2.0.1.0 -1 ------- null}
r -t 2.89132860832611 -s 1 -d 0 -p ack -e 40 -c 0 -i 13 -a 0 -x {0.0.1.1 2.0.1.0 2 ------- null}
+ -t 2.89132860832611 -s 0 -d 3 -p ack -e 40 -c 0 -i 13 -a 0 -x {0.0.1.1 2.0.1.0 2 ------- null}
- -t 2.89132860832611 -s 0 -d 3 -p ack -e 40 -c 0 -i 13 -a 0 -x {0.0.1.1 2.0.1.0 2 ------- null}
h -t 2.89132860832611 -s 0 -d 3 -p ack -e 40 -c 0 -i 13 -a 0 -x {0.0.1.1 2.0.1.0 -1 ------- null}
r -t 2.90462529983164 -s 0 -d 2 -p ack -e 40 -c 0 -i 9 -a 0 -x {0.0.1.0 1.0.1.0 0 ------- null}
r -t 2.906466714 -s 4 -d 4 -p ack -e 40 -c 2 -a 0 -i 9 -k AGT
+ -t 2.906466714 -s 4 -d -1 -p tcp -e 1040 -c 2 -a 0 -i 14 -k AGT 
- -t 2.906466714 -s 4 -d -1 -p tcp -e 1040 -c 2 -a 0 -i 14 -k AGT
h -t 2.906466714 -s 4 -d -1 -p tcp -e 1040 -c 2 -a 0 -i 14 -k AGT
+ -t 2.906466714 -s 4 -d -1 -p tcp -e 1040 -c 2 -a 0 -i 15 -k AGT 
- -t 2.906466714 -s 4 -d -1 -p tcp -e 1040 -c 2 -a 0 -i 15 -k AGT
h -t 2.906466714 -s 4 -d -1 -p tcp -e 1040 -c 2 -a 0 -i 15 -k AGT
+ -t 2.91663212825877 -s 2 -d 0 -p tcp -e 1060 -c 0 -i 14 -a 0 -x {1.0.1.0 0.0.1.0 1 ------- null}
- -t 2.91663212825877 -s 2 -d 0 -p tcp -e 1060 -c 0 -i 14 -a 0 -x {1.0.1.0 0.0.1.0 1 ------- null}
h -t 2.91663212825877 -s 2 -d 0 -p tcp -e 1060 -c 0 -i 14 -a 0 -x {1.0.1.0 0.0.1.0 -1 ------- null}
+ -t 2.92709801387685 -s 2 -d 0 -p tcp -e 1060 -c 0 -i 15 -a 0 -x {1.0.1.0 0.0.1.0 2 ------- null}
- -t 2.92709801387685 -s 2 -d 0 -p tcp -e 1060 -c 0 -i 15 -a 0 -x {1.0.1.0 0.0.1.0 2 ------- null}
h -t 2.92709801387685 -s 2 -d 0 -p tcp -e 1060 -c 0 -i 15 -a 0 -x {1.0.1.0 0.0.1.0 -1 ------- null}
r -t 2.94900747695526 -s 0 -d 3 -p ack -e 40 -c 0 -i 12 -a 0 -x {0.0.1.1 2.0.1.0 1 ------- null}
r -t 2.950788325 -s 5 -d 5 -p ack -e 40 -c 2 -a 0 -i 12 -k AGT
+ -t 2.950788325 -s 5 -d -1 -p tcp -e 5040 -c 2 -a 0 -i 16 -k AGT 
- -t 2.950788325 -s 5 -d -1 -p tcp -e 5040 -c 2 -a 0 -i 16 -k AGT
h -t 2.950788325 -s 5 -d -1 -p tcp -e 5040 -c 2 -a 0 -i 16 -k AGT
+ -t 2.950788325 -s 5 -d -1 -p tcp -e 5040 -c 2 -a 0 -i 17 -k AGT 
- -t 2.950788325 -s 5 -d -1 -p tcp -e 5040 -c 2 -a 0 -i 17 -k AGT
h -t 2.950788325 -s 5 -d -1 -p tcp -e 5040 -c 2 -a 0 -i 17 -k AGT
r -t 2.99133260832611 -s 0 -d 3 -p ack -e 40 -c 0 -i 13 -a 0 -x {0.0.1.1 2.0.1.0 2 ------- null}
r -t 2.993093174 -s 1 -d 1 -p tcp -e 5060 -c 2 -a 0 -i 16 -k AGT
+ -t 2.993093174 -s 1 -d -1 -p ack -e 40 -c 2 -a 0 -i 18 -k AGT 
- -t 2.993093174 -s 1 -d -1 -p ack -e 40 -c 2 -a 0 -i 18 -k AGT
h -t 2.993093174 -s 1 -d -1 -p ack -e 40 -c 2 -a 0 -i 18 -k AGT
+ -t 2.99309317401153 -s 1 -d 0 -p ack -e 40 -c 0 -i 18 -a 0 -x {0.0.1.1 2.0.1.0 3 ------- null}
- -t 2.99309317401153 -s 1 -d 0 -p ack -e 40 -c 0 -i 18 -a 0 -x {0.0.1.1 2.0.1.0 3 ------- null}
h -t 2.99309317401153 -s 1 -d 0 -p ack -e 40 -c 0 -i 18 -a 0 -x {0.0.1.1 2.0.1.0 -1 ------- null}
r -t 3.01673812825877 -s 2 -d 0 -p tcp -e 1060 -c 0 -i 14 -a 0 -x {1.0.1.0 0.0.1.0 1 ------- null}
+ -t 3.01673812825877 -s 0 -d 1 -p tcp -e 1060 -c 0 -i 14 -a 0 -x {1.0.1.0 0.0.1.0 1 ------- null}
- -t 3.01673812825877 -s 0 -d 1 -p tcp -e 1060 -c 0 -i 14 -a 0 -x {1.0.1.0 0.0.1.0 1 ------- null}
h -t 3.01673812825877 -s 0 -d 1 -p tcp -e 1060 -c 0 -i 14 -a 0 -x {1.0.1.0 0.0.1.0 -1 ------- null}
r -t 3.02720401387685 -s 2 -d 0 -p tcp -e 1060 -c 0 -i 15 -a 0 -x {1.0.1.0 0.0.1.0 2 ------- null}
+ -t 3.02720401387685 -s 0 -d 1 -p tcp -e 1060 -c 0 -i 15 -a 0 -x {1.0.1.0 0.0.1.0 2 ------- null}
- -t 3.02720401387685 -s 0 -d 1 -p tcp -e 1060 -c 0 -i 15 -a 0 -x {1.0.1.0 0.0.1.0 2 ------- null}
h -t 3.02720401387685 -s 0 -d 1 -p tcp -e 1060 -c 0 -i 15 -a 0 -x {1.0.1.0 0.0.1.0 -1 ------- null}
r -t 3.035158305 -s 1 -d 1 -p tcp -e 5060 -c 2 -a 0 -i 17 -k AGT
+ -t 3.035158305 -s 1 -d -1 -p ack -e 40 -c 2 -a 0 -i 19 -k AGT 
- -t 3.035158305 -s 1 -d -1 -p ack -e 40 -c 2 -a 0 -i 19 -k AGT
h -t 3.035158305 -s 1 -d -1 -p ack -e 40 -c 2 -a 0 -i 19 -k AGT
+ -t 3.03515830538238 -s 1 -d 0 -p ack -e 40 -c 0 -i 19 -a 0 -x {0.0.1.1 2.0.1.0 4 ------- null}
- -t 3.03515830538238 -s 1 -d 0 -p ack -e 40 -c 0 -i 19 -a 0 -x {0.0.1.1 2.0.1.0 4 ------- null}
h -t 3.03515830538238 -s 1 -d 0 -p ack -e 40 -c 0 -i 19 -a 0 -x {0.0.1.1 2.0.1.0 -1 ------- null}
r -t 3.037123154 -s 5 -d 5 -p ack -e 40 -c 2 -a 0 -i 13 -k AGT
+ -t 3.037123154 -s 5 -d -1 -p tcp -e 5040 -c 2 -a 0 -i 20 -k AGT 
- -t 3.037123154 -s 5 -d -1 -p tcp -e 5040 -c 2 -a 0 -i 20 -k AGT
h -t 3.037123154 -s 5 -d -1 -p tcp -e 5040 -c 2 -a 0 -i 20 -k AGT
+ -t 3.037123154 -s 5 -d -1 -p tcp -e 5040 -c 2 -a 0 -i 21 -k AGT 
- -t 3.037123154 -s 5 -d -1 -p tcp -e 5040 -c 2 -a 0 -i 21 -k AGT
h -t 3.037123154 -s 5 -d -1 -p tcp -e 5040 -c 2 -a 0 -i 21 -k AGT
r -t 3.079268002 -s 1 -d 1 -p tcp -e 5060 -c 2 -a 0 -i 20 -k AGT
+ -t 3.079268002 -s 1 -d -1 -p ack -e 40 -c 2 -a 0 -i 22 -k AGT 
- -t 3.079268002 -s 1 -d -1 -p ack -e 40 -c 2 -a 0 -i 22 -k AGT
h -t 3.079268002 -s 1 -d -1 -p ack -e 40 -c 2 -a 0 -i 22 -k AGT
+ -t 3.07926800243866 -s 1 -d 0 -p ack -e 40 -c 0 -i 22 -a 0 -x {0.0.1.1 2.0.1.0 5 ------- null}
- -t 3.07926800243866 -s 1 -d 0 -p ack -e 40 -c 0 -i 22 -a 0 -x {0.0.1.1 2.0.1.0 5 ------- null}
h -t 3.07926800243866 -s 1 -d 0 -p ack -e 40 -c 0 -i 22 -a 0 -x {0.0.1.1 2.0.1.0 -1 ------- null}
r -t 3.09309357401153 -s 1 -d 0 -p ack -e 40 -c 0 -i 18 -a 0 -x {0.0.1.1 2.0.1.0 3 ------- null}
+ -t 3.09309357401153 -s 0 -d 3 -p ack -e 40 -c 0 -i 18 -a 0 -x {0.0.1.1 2.0.1.0 3 ------- null}
- -t 3.09309357401153 -s 0 -d 3 -p ack -e 40 -c 0 -i 18 -a 0 -x {0.0.1.1 2.0.1.0 3 ------- null}
h -t 3.09309357401153 -s 0 -d 3 -p ack -e 40 -c 0 -i 18 -a 0 -x {0.0.1.1 2.0.1.0 -1 ------- null}
r -t 3.11674872825877 -s 0 -d 1 -p tcp -e 1060 -c 0 -i 14 -a 0 -x {1.0.1.0 0.0.1.0 1 ------- null}
r -t 3.116748728 -s 1 -d 2 -p tcp -e 1060 -c 2 -a 0 -i 14 -k AGT
+ -t 3.116748728 -s 1 -d -1 -p ack -e 40 -c 2 -a 0 -i 23 -k AGT 
- -t 3.116748728 -s 1 -d -1 -p ack -e 40 -c 2 -a 0 -i 23 -k AGT
h -t 3.116748728 -s 1 -d -1 -p ack -e 40 -c 2 -a 0 -i 23 -k AGT
+ -t 3.11674872825877 -s 1 -d 0 -p ack -e 40 -c 0 -i 23 -a 0 -x {0.0.1.0 1.0.1.0 1 ------- null}
- -t 3.11674872825877 -s 1 -d 0 -p ack -e 40 -c 0 -i 23 -a 0 -x {0.0.1.0 1.0.1.0 1 ------- null}
h -t 3.11674872825877 -s 1 -d 0 -p ack -e 40 -c 0 -i 23 -a 0 -x {0.0.1.0 1.0.1.0 -1 ------- null}
r -t 3.121493134 -s 1 -d 1 -p tcp -e 5060 -c 2 -a 0 -i 21 -k AGT
+ -t 3.121493134 -s 1 -d -1 -p ack -e 40 -c 2 -a 0 -i 24 -k AGT 
- -t 3.121493134 -s 1 -d -1 -p ack -e 40 -c 2 -a 0 -i 24 -k AGT
h -t 3.121493134 -s 1 -d -1 -p ack -e 40 -c 2 -a 0 -i 24 -k AGT
+ -t 3.12149313380951 -s 1 -d 0 -p ack -e 40 -c 0 -i 24 -a 0 -x {0.0.1.1 2.0.1.0 6 ------- null}
- -t 3.12149313380951 -s 1 -d 0 -p ack -e 40 -c 0 -i 24 -a 0 -x {0.0.1.1 2.0.1.0 6 ------- null}
h -t 3.12149313380951 -s 1 -d 0 -p ack -e 40 -c 0 -i 24 -a 0 -x {0.0.1.1 2.0.1.0 -1 ------- null}
r -t 3.12721461387685 -s 0 -d 1 -p tcp -e 1060 -c 0 -i 15 -a 0 -x {1.0.1.0 0.0.1.0 2 ------- null}
r -t 3.127214614 -s 1 -d 2 -p tcp -e 1060 -c 2 -a 0 -i 15 -k AGT
+ -t 3.127214614 -s 1 -d -1 -p ack -e 40 -c 2 -a 0 -i 25 -k AGT 
- -t 3.127214614 -s 1 -d -1 -p ack -e 40 -c 2 -a 0 -i 25 -k AGT
h -t 3.127214614 -s 1 -d -1 -p ack -e 40 -c 2 -a 0 -i 25 -k AGT
+ -t 3.12721461387685 -s 1 -d 0 -p ack -e 40 -c 0 -i 25 -a 0 -x {0.0.1.0 1.0.1.0 2 ------- null}
- -t 3.12721461387685 -s 1 -d 0 -p ack -e 40 -c 0 -i 25 -a 0 -x {0.0.1.0 1.0.1.0 2 ------- null}
h -t 3.12721461387685 -s 1 -d 0 -p ack -e 40 -c 0 -i 25 -a 0 -x {0.0.1.0 1.0.1.0 -1 ------- null}
r -t 3.13515870538238 -s 1 -d 0 -p ack -e 40 -c 0 -i 19 -a 0 -x {0.0.1.1 2.0.1.0 4 ------- null}
+ -t 3.13515870538238 -s 0 -d 3 -p ack -e 40 -c 0 -i 19 -a 0 -x {0.0.1.1 2.0.1.0 4 ------- null}
- -t 3.13515870538238 -s 0 -d 3 -p ack -e 40 -c 0 -i 19 -a 0 -x {0.0.1.1 2.0.1.0 4 ------- null}
h -t 3.13515870538238 -s 0 -d 3 -p ack -e 40 -c 0 -i 19 -a 0 -x {0.0.1.1 2.0.1.0 -1 ------- null}
r -t 3.17926840243866 -s 1 -d 0 -p ack -e 40 -c 0 -i 22 -a 0 -x {0.0.1.1 2.0.1.0 5 ------- null}
+ -t 3.17926840243866 -s 0 -d 3 -p ack -e 40 -c 0 -i 22 -a 0 -x {0.0.1.1 2.0.1.0 5 ------- null}
- -t 3.17926840243866 -s 0 -d 3 -p ack -e 40 -c 0 -i 22 -a 0 -x {0.0.1.1 2.0.1.0 5 ------- null}
h -t 3.17926840243866 -s 0 -d 3 -p ack -e 40 -c 0 -i 22 -a 0 -x {0.0.1.1 2.0.1.0 -1 ------- null}
r -t 3.19309757401153 -s 0 -d 3 -p ack -e 40 -c 0 -i 18 -a 0 -x {0.0.1.1 2.0.1.0 3 ------- null}
r -t 3.194938423 -s 5 -d 5 -p ack -e 40 -c 2 -a 0 -i 18 -k AGT
+ -t 3.194938423 -s 5 -d -1 -p tcp -e 5040 -c 2 -a 0 -i 26 -k AGT 
- -t 3.194938423 -s 5 -d -1 -p tcp -e 5040 -c 2 -a 0 -i 26 -k AGT
h -t 3.194938423 -s 5 -d -1 -p tcp -e 5040 -c 2 -a 0 -i 26 -k AGT
+ -t 3.194938423 -s 5 -d -1 -p tcp -e 5040 -c 2 -a 0 -i 27 -k AGT 
- -t 3.194938423 -s 5 -d -1 -p tcp -e 5040 -c 2 -a 0 -i 27 -k AGT
h -t 3.194938423 -s 5 -d -1 -p tcp -e 5040 -c 2 -a 0 -i 27 -k AGT
r -t 3.21674912825877 -s 1 -d 0 -p ack -e 40 -c 0 -i 23 -a 0 -x {0.0.1.0 1.0.1.0 1 ------- null}
+ -t 3.21674912825877 -s 0 -d 2 -p ack -e 40 -c 0 -i 23 -a 0 -x {0.0.1.0 1.0.1.0 1 ------- null}
- -t 3.21674912825877 -s 0 -d 2 -p ack -e 40 -c 0 -i 23 -a 0 -x {0.0.1.0 1.0.1.0 1 ------- null}
h -t 3.21674912825877 -s 0 -d 2 -p ack -e 40 -c 0 -i 23 -a 0 -x {0.0.1.0 1.0.1.0 -1 ------- null}
r -t 3.22149353380951 -s 1 -d 0 -p ack -e 40 -c 0 -i 24 -a 0 -x {0.0.1.1 2.0.1.0 6 ------- null}
+ -t 3.22149353380951 -s 0 -d 3 -p ack -e 40 -c 0 -i 24 -a 0 -x {0.0.1.1 2.0.1.0 6 ------- null}
- -t 3.22149353380951 -s 0 -d 3 -p ack -e 40 -c 0 -i 24 -a 0 -x {0.0.1.1 2.0.1.0 6 ------- null}
h -t 3.22149353380951 -s 0 -d 3 -p ack -e 40 -c 0 -i 24 -a 0 -x {0.0.1.1 2.0.1.0 -1 ------- null}
r -t 3.22721501387685 -s 1 -d 0 -p ack -e 40 -c 0 -i 25 -a 0 -x {0.0.1.0 1.0.1.0 2 ------- null}
+ -t 3.22721501387685 -s 0 -d 2 -p ack -e 40 -c 0 -i 25 -a 0 -x {0.0.1.0 1.0.1.0 2 ------- null}
- -t 3.22721501387685 -s 0 -d 2 -p ack -e 40 -c 0 -i 25 -a 0 -x {0.0.1.0 1.0.1.0 2 ------- null}
h -t 3.22721501387685 -s 0 -d 2 -p ack -e 40 -c 0 -i 25 -a 0 -x {0.0.1.0 1.0.1.0 -1 ------- null}
r -t 3.23516270538238 -s 0 -d 3 -p ack -e 40 -c 0 -i 19 -a 0 -x {0.0.1.1 2.0.1.0 4 ------- null}
r -t 3.236943271 -s 1 -d 1 -p tcp -e 5060 -c 2 -a 0 -i 26 -k AGT
+ -t 3.236943271 -s 1 -d -1 -p ack -e 40 -c 2 -a 0 -i 28 -k AGT 
- -t 3.236943271 -s 1 -d -1 -p ack -e 40 -c 2 -a 0 -i 28 -k AGT
h -t 3.236943271 -s 1 -d -1 -p ack -e 40 -c 2 -a 0 -i 28 -k AGT
+ -t 3.23694327106781 -s 1 -d 0 -p ack -e 40 -c 0 -i 28 -a 0 -x {0.0.1.1 2.0.1.0 7 ------- null}
- -t 3.23694327106781 -s 1 -d 0 -p ack -e 40 -c 0 -i 28 -a 0 -x {0.0.1.1 2.0.1.0 7 ------- null}
h -t 3.23694327106781 -s 1 -d 0 -p ack -e 40 -c 0 -i 28 -a 0 -x {0.0.1.1 2.0.1.0 -1 ------- null}
r -t 3.279168402 -s 1 -d 1 -p tcp -e 5060 -c 2 -a 0 -i 27 -k AGT
+ -t 3.279168402 -s 1 -d -1 -p ack -e 40 -c 2 -a 0 -i 29 -k AGT 
- -t 3.279168402 -s 1 -d -1 -p ack -e 40 -c 2 -a 0 -i 29 -k AGT
h -t 3.279168402 -s 1 -d -1 -p ack -e 40 -c 2 -a 0 -i 29 -k AGT
+ -t 3.27916840243866 -s 1 -d 0 -p ack -e 40 -c 0 -i 29 -a 0 -x {0.0.1.1 2.0.1.0 8 ------- null}
- -t 3.27916840243866 -s 1 -d 0 -p ack -e 40 -c 0 -i 29 -a 0 -x {0.0.1.1 2.0.1.0 8 ------- null}
h -t 3.27916840243866 -s 1 -d 0 -p ack -e 40 -c 0 -i 29 -a 0 -x {0.0.1.1 2.0.1.0 -1 ------- null}
r -t 3.27927240243866 -s 0 -d 3 -p ack -e 40 -c 0 -i 22 -a 0 -x {0.0.1.1 2.0.1.0 5 ------- null}
r -t 3.281213251 -s 5 -d 5 -p ack -e 40 -c 2 -a 0 -i 19 -k AGT
+ -t 3.281213251 -s 5 -d -1 -p tcp -e 5040 -c 2 -a 0 -i 30 -k AGT 
- -t 3.281213251 -s 5 -d -1 -p tcp -e 5040 -c 2 -a 0 -i 30 -k AGT
h -t 3.281213251 -s 5 -d -1 -p tcp -e 5040 -c 2 -a 0 -i 30 -k AGT
+ -t 3.281213251 -s 5 -d -1 -p tcp -e 5040 -c 2 -a 0 -i 31 -k AGT 
- -t 3.281213251 -s 5 -d -1 -p tcp -e 5040 -c 2 -a 0 -i 31 -k AGT
h -t 3.281213251 -s 5 -d -1 -p tcp -e 5040 -c 2 -a 0 -i 31 -k AGT
r -t 3.283078382 -s 5 -d 5 -p ack -e 40 -c 2 -a 0 -i 22 -k AGT
+ -t 3.283078382 -s 5 -d -1 -p tcp -e 5040 -c 2 -a 0 -i 32 -k AGT 
- -t 3.283078382 -s 5 -d -1 -p tcp -e 5040 -c 2 -a 0 -i 32 -k AGT
h -t 3.283078382 -s 5 -d -1 -p tcp -e 5040 -c 2 -a 0 -i 32 -k AGT
+ -t 3.283078382 -s 5 -d -1 -p tcp -e 5040 -c 2 -a 0 -i 33 -k AGT 
- -t 3.283078382 -s 5 -d -1 -p tcp -e 5040 -c 2 -a 0 -i 33 -k AGT
h -t 3.283078382 -s 5 -d -1 -p tcp -e 5040 -c 2 -a 0 -i 33 -k AGT
r -t 3.31675312825877 -s 0 -d 2 -p ack -e 40 -c 0 -i 23 -a 0 -x {0.0.1.0 1.0.1.0 1 ------- null}
r -t 3.318434542 -s 4 -d 4 -p ack -e 40 -c 2 -a 0 -i 23 -k AGT
+ -t 3.318434542 -s 4 -d -1 -p tcp -e 1040 -c 2 -a 0 -i 34 -k AGT 
- -t 3.318434542 -s 4 -d -1 -p tcp -e 1040 -c 2 -a 0 -i 34 -k AGT
h -t 3.318434542 -s 4 -d -1 -p tcp -e 1040 -c 2 -a 0 -i 34 -k AGT
+ -t 3.318434542 -s 4 -d -1 -p tcp -e 1040 -c 2 -a 0 -i 35 -k AGT 
- -t 3.318434542 -s 4 -d -1 -p tcp -e 1040 -c 2 -a 0 -i 35 -k AGT
h -t 3.318434542 -s 4 -d -1 -p tcp -e 1040 -c 2 -a 0 -i 35 -k AGT
r -t 3.32149753380951 -s 0 -d 3 -p ack -e 40 -c 0 -i 24 -a 0 -x {0.0.1.1 2.0.1.0 6 ------- null}
r -t 3.325323231 -s 1 -d 1 -p tcp -e 5060 -c 2 -a 0 -i 30 -k AGT
+ -t 3.325323231 -s 1 -d -1 -p ack -e 40 -c 2 -a 0 -i 36 -k AGT 
- -t 3.325323231 -s 1 -d -1 -p ack -e 40 -c 2 -a 0 -i 36 -k AGT
h -t 3.325323231 -s 1 -d -1 -p ack -e 40 -c 2 -a 0 -i 36 -k AGT
+ -t 3.32532323086578 -s 1 -d 0 -p ack -e 40 -c 0 -i 36 -a 0 -x {0.0.1.1 2.0.1.0 9 ------- null}
- -t 3.32532323086578 -s 1 -d 0 -p ack -e 40 -c 0 -i 36 -a 0 -x {0.0.1.1 2.0.1.0 9 ------- null}
h -t 3.32532323086578 -s 1 -d 0 -p ack -e 40 -c 0 -i 36 -a 0 -x {0.0.1.1 2.0.1.0 -1 ------- null}
r -t 3.32721901387685 -s 0 -d 2 -p ack -e 40 -c 0 -i 25 -a 0 -x {0.0.1.0 1.0.1.0 2 ------- null}
+ -t 3.32861995668589 -s 2 -d 0 -p tcp -e 1060 -c 0 -i 34 -a 0 -x {1.0.1.0 0.0.1.0 3 ------- null}
- -t 3.32861995668589 -s 2 -d 0 -p tcp -e 1060 -c 0 -i 34 -a 0 -x {1.0.1.0 0.0.1.0 3 ------- null}
h -t 3.32861995668589 -s 2 -d 0 -p tcp -e 1060 -c 0 -i 34 -a 0 -x {1.0.1.0 0.0.1.0 -1 ------- null}
r -t 3.33694367106781 -s 1 -d 0 -p ack -e 40 -c 0 -i 28 -a 0 -x {0.0.1.1 2.0.1.0 7 ------- null}
+ -t 3.33694367106781 -s 0 -d 3 -p ack -e 40 -c 0 -i 28 -a 0 -x {0.0.1.1 2.0.1.0 7 ------- null}
- -t 3.33694367106781 -s 0 -d 3 -p ack -e 40 -c 0 -i 28 -a 0 -x {0.0.1.1 2.0.1.0 7 ------- null}
h -t 3.33694367106781 -s 0 -d 3 -p ack -e 40 -c 0 -i 28 -a 0 -x {0.0.1.1 2.0.1.0 -1 ------- null}
+ -t 3.33880584230397 -s 2 -d 0 -p tcp -e 1060 -c 0 -i 35 -a 0 -x {1.0.1.0 0.0.1.0 4 ------- null}
- -t 3.33880584230397 -s 2 -d 0 -p tcp -e 1060 -c 0 -i 35 -a 0 -x {1.0.1.0 0.0.1.0 4 ------- null}
h -t 3.33880584230397 -s 2 -d 0 -p tcp -e 1060 -c 0 -i 35 -a 0 -x {1.0.1.0 0.0.1.0 -1 ------- null}
r -t 3.340691257 -s 4 -d 4 -p ack -e 40 -c 2 -a 0 -i 25 -k AGT
+ -t 3.340691257 -s 4 -d -1 -p tcp -e 1040 -c 2 -a 0 -i 37 -k AGT 
- -t 3.340691257 -s 4 -d -1 -p tcp -e 1040 -c 2 -a 0 -i 37 -k AGT
h -t 3.340691257 -s 4 -d -1 -p tcp -e 1040 -c 2 -a 0 -i 37 -k AGT
+ -t 3.340691257 -s 4 -d -1 -p tcp -e 1040 -c 2 -a 0 -i 38 -k AGT 
- -t 3.340691257 -s 4 -d -1 -p tcp -e 1040 -c 2 -a 0 -i 38 -k AGT
h -t 3.340691257 -s 4 -d -1 -p tcp -e 1040 -c 2 -a 0 -i 38 -k AGT
+ -t 3.3510166707311 -s 2 -d 0 -p tcp -e 1060 -c 0 -i 37 -a 0 -x {1.0.1.0 0.0.1.0 5 ------- null}
- -t 3.3510166707311 -s 2 -d 0 -p tcp -e 1060 -c 0 -i 37 -a 0 -x {1.0.1.0 0.0.1.0 5 ------- null}
h -t 3.3510166707311 -s 2 -d 0 -p tcp -e 1060 -c 0 -i 37 -a 0 -x {1.0.1.0 0.0.1.0 -1 ------- null}
+ -t 3.36112255634918 -s 2 -d 0 -p tcp -e 1060 -c 0 -i 38 -a 0 -x {1.0.1.0 0.0.1.0 6 ------- null}
- -t 3.36112255634918 -s 2 -d 0 -p tcp -e 1060 -c 0 -i 38 -a 0 -x {1.0.1.0 0.0.1.0 6 ------- null}
h -t 3.36112255634918 -s 2 -d 0 -p tcp -e 1060 -c 0 -i 38 -a 0 -x {1.0.1.0 0.0.1.0 -1 ------- null}
r -t 3.367388362 -s 1 -d 1 -p tcp -e 5060 -c 2 -a 0 -i 31 -k AGT
+ -t 3.367388362 -s 1 -d -1 -p ack -e 40 -c 2 -a 0 -i 39 -k AGT 
- -t 3.367388362 -s 1 -d -1 -p ack -e 40 -c 2 -a 0 -i 39 -k AGT
h -t 3.367388362 -s 1 -d -1 -p ack -e 40 -c 2 -a 0 -i 39 -k AGT
+ -t 3.36738836223663 -s 1 -d 0 -p ack -e 40 -c 0 -i 39 -a 0 -x {0.0.1.1 2.0.1.0 10 ------- null}
- -t 3.36738836223663 -s 1 -d 0 -p ack -e 40 -c 0 -i 39 -a 0 -x {0.0.1.1 2.0.1.0 10 ------- null}
h -t 3.36738836223663 -s 1 -d 0 -p ack -e 40 -c 0 -i 39 -a 0 -x {0.0.1.1 2.0.1.0 -1 ------- null}
r -t 3.369353211 -s 5 -d 5 -p ack -e 40 -c 2 -a 0 -i 24 -k AGT
+ -t 3.369353211 -s 5 -d -1 -p tcp -e 5040 -c 2 -a 0 -i 40 -k AGT 
- -t 3.369353211 -s 5 -d -1 -p tcp -e 5040 -c 2 -a 0 -i 40 -k AGT
h -t 3.369353211 -s 5 -d -1 -p tcp -e 5040 -c 2 -a 0 -i 40 -k AGT
+ -t 3.369353211 -s 5 -d -1 -p tcp -e 5040 -c 2 -a 0 -i 41 -k AGT 
- -t 3.369353211 -s 5 -d -1 -p tcp -e 5040 -c 2 -a 0 -i 41 -k AGT
h -t 3.369353211 -s 5 -d -1 -p tcp -e 5040 -c 2 -a 0 -i 41 -k AGT
r -t 3.37916880243866 -s 1 -d 0 -p ack -e 40 -c 0 -i 29 -a 0 -x {0.0.1.1 2.0.1.0 8 ------- null}
+ -t 3.37916880243866 -s 0 -d 3 -p ack -e 40 -c 0 -i 29 -a 0 -x {0.0.1.1 2.0.1.0 8 ------- null}
- -t 3.37916880243866 -s 0 -d 3 -p ack -e 40 -c 0 -i 29 -a 0 -x {0.0.1.1 2.0.1.0 8 ------- null}
h -t 3.37916880243866 -s 0 -d 3 -p ack -e 40 -c 0 -i 29 -a 0 -x {0.0.1.1 2.0.1.0 -1 ------- null}
r -t 3.411778059 -s 1 -d 1 -p tcp -e 5060 -c 2 -a 0 -i 32 -k AGT
+ -t 3.411778059 -s 1 -d -1 -p ack -e 40 -c 2 -a 0 -i 42 -k AGT 
- -t 3.411778059 -s 1 -d -1 -p ack -e 40 -c 2 -a 0 -i 42 -k AGT
h -t 3.411778059 -s 1 -d -1 -p ack -e 40 -c 2 -a 0 -i 42 -k AGT
+ -t 3.4117780592929 -s 1 -d 0 -p ack -e 40 -c 0 -i 42 -a 0 -x {0.0.1.1 2.0.1.0 11 ------- null}
- -t 3.4117780592929 -s 1 -d 0 -p ack -e 40 -c 0 -i 42 -a 0 -x {0.0.1.1 2.0.1.0 11 ------- null}
h -t 3.4117780592929 -s 1 -d 0 -p ack -e 40 -c 0 -i 42 -a 0 -x {0.0.1.1 2.0.1.0 -1 ------- null}
r -t 3.42532363086578 -s 1 -d 0 -p ack -e 40 -c 0 -i 36 -a 0 -x {0.0.1.1 2.0.1.0 9 ------- null}
+ -t 3.42532363086578 -s 0 -d 3 -p ack -e 40 -c 0 -i 36 -a 0 -x {0.0.1.1 2.0.1.0 9 ------- null}
- -t 3.42532363086578 -s 0 -d 3 -p ack -e 40 -c 0 -i 36 -a 0 -x {0.0.1.1 2.0.1.0 9 ------- null}
h -t 3.42532363086578 -s 0 -d 3 -p ack -e 40 -c 0 -i 36 -a 0 -x {0.0.1.1 2.0.1.0 -1 ------- null}
r -t 3.42872595668589 -s 2 -d 0 -p tcp -e 1060 -c 0 -i 34 -a 0 -x {1.0.1.0 0.0.1.0 3 ------- null}
+ -t 3.42872595668589 -s 0 -d 1 -p tcp -e 1060 -c 0 -i 34 -a 0 -x {1.0.1.0 0.0.1.0 3 ------- null}
- -t 3.42872595668589 -s 0 -d 1 -p tcp -e 1060 -c 0 -i 34 -a 0 -x {1.0.1.0 0.0.1.0 3 ------- null}
h -t 3.42872595668589 -s 0 -d 1 -p tcp -e 1060 -c 0 -i 34 -a 0 -x {1.0.1.0 0.0.1.0 -1 ------- null}
r -t 3.43694767106781 -s 0 -d 3 -p ack -e 40 -c 0 -i 28 -a 0 -x {0.0.1.1 2.0.1.0 7 ------- null}
r -t 3.43891184230397 -s 2 -d 0 -p tcp -e 1060 -c 0 -i 35 -a 0 -x {1.0.1.0 0.0.1.0 4 ------- null}
+ -t 3.43891184230397 -s 0 -d 1 -p tcp -e 1060 -c 0 -i 35 -a 0 -x {1.0.1.0 0.0.1.0 4 ------- null}
- -t 3.43891184230397 -s 0 -d 1 -p tcp -e 1060 -c 0 -i 35 -a 0 -x {1.0.1.0 0.0.1.0 4 ------- null}
h -t 3.43891184230397 -s 0 -d 1 -p tcp -e 1060 -c 0 -i 35 -a 0 -x {1.0.1.0 0.0.1.0 -1 ------- null}
r -t 3.4511226707311 -s 2 -d 0 -p tcp -e 1060 -c 0 -i 37 -a 0 -x {1.0.1.0 0.0.1.0 5 ------- null}
+ -t 3.4511226707311 -s 0 -d 1 -p tcp -e 1060 -c 0 -i 37 -a 0 -x {1.0.1.0 0.0.1.0 5 ------- null}
- -t 3.4511226707311 -s 0 -d 1 -p tcp -e 1060 -c 0 -i 37 -a 0 -x {1.0.1.0 0.0.1.0 5 ------- null}
h -t 3.4511226707311 -s 0 -d 1 -p tcp -e 1060 -c 0 -i 37 -a 0 -x {1.0.1.0 0.0.1.0 -1 ------- null}
r -t 3.454363191 -s 1 -d 1 -p tcp -e 5060 -c 2 -a 0 -i 33 -k AGT
+ -t 3.454363191 -s 1 -d -1 -p ack -e 40 -c 2 -a 0 -i 43 -k AGT 
- -t 3.454363191 -s 1 -d -1 -p ack -e 40 -c 2 -a 0 -i 43 -k AGT
h -t 3.454363191 -s 1 -d -1 -p ack -e 40 -c 2 -a 0 -i 43 -k AGT
+ -t 3.45436319066375 -s 1 -d 0 -p ack -e 40 -c 0 -i 43 -a 0 -x {0.0.1.1 2.0.1.0 12 ------- null}
- -t 3.45436319066375 -s 1 -d 0 -p ack -e 40 -c 0 -i 43 -a 0 -x {0.0.1.1 2.0.1.0 12 ------- null}
h -t 3.45436319066375 -s 1 -d 0 -p ack -e 40 -c 0 -i 43 -a 0 -x {0.0.1.1 2.0.1.0 -1 ------- null}
r -t 3.456628039 -s 5 -d 5 -p ack -e 40 -c 2 -a 0 -i 28 -k AGT
+ -t 3.456628039 -s 5 -d -1 -p tcp -e 5040 -c 2 -a 0 -i 44 -k AGT 
- -t 3.456628039 -s 5 -d -1 -p tcp -e 5040 -c 2 -a 0 -i 44 -k AGT
h -t 3.456628039 -s 5 -d -1 -p tcp -e 5040 -c 2 -a 0 -i 44 -k AGT
+ -t 3.456628039 -s 5 -d -1 -p tcp -e 5040 -c 2 -a 0 -i 45 -k AGT 
- -t 3.456628039 -s 5 -d -1 -p tcp -e 5040 -c 2 -a 0 -i 45 -k AGT
h -t 3.456628039 -s 5 -d -1 -p tcp -e 5040 -c 2 -a 0 -i 45 -k AGT
r -t 3.46122855634918 -s 2 -d 0 -p tcp -e 1060 -c 0 -i 38 -a 0 -x {1.0.1.0 0.0.1.0 6 ------- null}
+ -t 3.46122855634918 -s 0 -d 1 -p tcp -e 1060 -c 0 -i 38 -a 0 -x {1.0.1.0 0.0.1.0 6 ------- null}
- -t 3.46122855634918 -s 0 -d 1 -p tcp -e 1060 -c 0 -i 38 -a 0 -x {1.0.1.0 0.0.1.0 6 ------- null}
h -t 3.46122855634918 -s 0 -d 1 -p tcp -e 1060 -c 0 -i 38 -a 0 -x {1.0.1.0 0.0.1.0 -1 ------- null}
r -t 3.46738876223663 -s 1 -d 0 -p ack -e 40 -c 0 -i 39 -a 0 -x {0.0.1.1 2.0.1.0 10 ------- null}
+ -t 3.46738876223663 -s 0 -d 3 -p ack -e 40 -c 0 -i 39 -a 0 -x {0.0.1.1 2.0.1.0 10 ------- null}
- -t 3.46738876223663 -s 0 -d 3 -p ack -e 40 -c 0 -i 39 -a 0 -x {0.0.1.1 2.0.1.0 10 ------- null}
h -t 3.46738876223663 -s 0 -d 3 -p ack -e 40 -c 0 -i 39 -a 0 -x {0.0.1.1 2.0.1.0 -1 ------- null}
r -t 3.47917280243866 -s 0 -d 3 -p ack -e 40 -c 0 -i 29 -a 0 -x {0.0.1.1 2.0.1.0 8 ------- null}
r -t 3.498712888 -s 1 -d 1 -p tcp -e 5060 -c 2 -a 0 -i 40 -k AGT
+ -t 3.498712888 -s 1 -d -1 -p ack -e 40 -c 2 -a 0 -i 46 -k AGT 
- -t 3.498712888 -s 1 -d -1 -p ack -e 40 -c 2 -a 0 -i 46 -k AGT
h -t 3.498712888 -s 1 -d -1 -p ack -e 40 -c 2 -a 0 -i 46 -k AGT
+ -t 3.49871288772003 -s 1 -d 0 -p ack -e 40 -c 0 -i 46 -a 0 -x {0.0.1.1 2.0.1.0 13 ------- null}
- -t 3.49871288772003 -s 1 -d 0 -p ack -e 40 -c 0 -i 46 -a 0 -x {0.0.1.1 2.0.1.0 13 ------- null}
h -t 3.49871288772003 -s 1 -d 0 -p ack -e 40 -c 0 -i 46 -a 0 -x {0.0.1.1 2.0.1.0 -1 ------- null}
r -t 3.500737736 -s 5 -d 5 -p ack -e 40 -c 2 -a 0 -i 29 -k AGT
+ -t 3.500737736 -s 5 -d -1 -p tcp -e 5040 -c 2 -a 0 -i 47 -k AGT 
- -t 3.500737736 -s 5 -d -1 -p tcp -e 5040 -c 2 -a 0 -i 47 -k AGT
h -t 3.500737736 -s 5 -d -1 -p tcp -e 5040 -c 2 -a 0 -i 47 -k AGT
+ -t 3.500737736 -s 5 -d -1 -p tcp -e 5040 -c 2 -a 0 -i 48 -k AGT 
- -t 3.500737736 -s 5 -d -1 -p tcp -e 5040 -c 2 -a 0 -i 48 -k AGT
h -t 3.500737736 -s 5 -d -1 -p tcp -e 5040 -c 2 -a 0 -i 48 -k AGT
r -t 3.5117784592929 -s 1 -d 0 -p ack -e 40 -c 0 -i 42 -a 0 -x {0.0.1.1 2.0.1.0 11 ------- null}
+ -t 3.5117784592929 -s 0 -d 3 -p ack -e 40 -c 0 -i 42 -a 0 -x {0.0.1.1 2.0.1.0 11 ------- null}
- -t 3.5117784592929 -s 0 -d 3 -p ack -e 40 -c 0 -i 42 -a 0 -x {0.0.1.1 2.0.1.0 11 ------- null}
h -t 3.5117784592929 -s 0 -d 3 -p ack -e 40 -c 0 -i 42 -a 0 -x {0.0.1.1 2.0.1.0 -1 ------- null}
r -t 3.52532763086578 -s 0 -d 3 -p ack -e 40 -c 0 -i 36 -a 0 -x {0.0.1.1 2.0.1.0 9 ------- null}
r -t 3.52873655668589 -s 0 -d 1 -p tcp -e 1060 -c 0 -i 34 -a 0 -x {1.0.1.0 0.0.1.0 3 ------- null}
r -t 3.528736557 -s 1 -d 2 -p tcp -e 1060 -c 2 -a 0 -i 34 -k AGT
+ -t 3.528736557 -s 1 -d -1 -p ack -e 40 -c 2 -a 0 -i 49 -k AGT 
- -t 3.528736557 -s 1 -d -1 -p ack -e 40 -c 2 -a 0 -i 49 -k AGT
h -t 3.528736557 -s 1 -d -1 -p ack -e 40 -c 2 -a 0 -i 49 -k AGT
+ -t 3.52873655668589 -s 1 -d 0 -p ack -e 40 -c 0 -i 49 -a 0 -x {0.0.1.0 1.0.1.0 3 ------- null}
- -t 3.52873655668589 -s 1 -d 0 -p ack -e 40 -c 0 -i 49 -a 0 -x {0.0.1.0 1.0.1.0 3 ------- null}
h -t 3.52873655668589 -s 1 -d 0 -p ack -e 40 -c 0 -i 49 -a 0 -x {0.0.1.0 1.0.1.0 -1 ------- null}
r -t 3.53892244230397 -s 0 -d 1 -p tcp -e 1060 -c 0 -i 35 -a 0 -x {1.0.1.0 0.0.1.0 4 ------- null}
r -t 3.538922442 -s 1 -d 2 -p tcp -e 1060 -c 2 -a 0 -i 35 -k AGT
+ -t 3.538922442 -s 1 -d -1 -p ack -e 40 -c 2 -a 0 -i 50 -k AGT 
- -t 3.538922442 -s 1 -d -1 -p ack -e 40 -c 2 -a 0 -i 50 -k AGT
h -t 3.538922442 -s 1 -d -1 -p ack -e 40 -c 2 -a 0 -i 50 -k AGT
+ -t 3.53892244230397 -s 1 -d 0 -p ack -e 40 -c 0 -i 50 -a 0 -x {0.0.1.0 1.0.1.0 4 ------- null}
- -t 3.53892244230397 -s 1 -d 0 -p ack -e 40 -c 0 -i 50 -a 0 -x {0.0.1.0 1.0.1.0 4 ------- null}
h -t 3.53892244230397 -s 1 -d 0 -p ack -e 40 -c 0 -i 50 -a 0 -x {0.0.1.0 1.0.1.0 -1 ------- null}
r -t 3.542822585 -s 1 -d 1 -p tcp -e 5060 -c 2 -a 0 -i 41 -k AGT
+ -t 3.542822585 -s 1 -d -1 -p ack -e 40 -c 2 -a 0 -i 51 -k AGT 
- -t 3.542822585 -s 1 -d -1 -p ack -e 40 -c 2 -a 0 -i 51 -k AGT
h -t 3.542822585 -s 1 -d -1 -p ack -e 40 -c 2 -a 0 -i 51 -k AGT
+ -t 3.5428225847763 -s 1 -d 0 -p ack -e 40 -c 0 -i 51 -a 0 -x {0.0.1.1 2.0.1.0 14 ------- null}